3
 energy: -5.070325128562 gnorm: 0.008098996345 xtb: 6.6.1 (8d0f1dd)
O            0.00000000000000        0.00000000000000        0.11779000000000
H            0.00000000000000        0.75545300000000       -0.47116100000000
H            0.00000000000000       -0.75545300000000       -0.47116100000000
3
 energy: -5.070483251007 gnorm: 0.004921774797 xtb: 6.6.1 (8d0f1dd)
O            0.00000000000000       -0.00000000073415        0.11250558818041
H            0.00000000000000        0.76439695672809       -0.46851879437637
H           -0.00000000000000       -0.76439695599394       -0.46851879380403
3
 energy: -5.070541606870 gnorm: 0.002066748510 xtb: 6.6.1 (8d0f1dd)
O            0.00000000000000       -0.00000000073415        0.10588626788581
H            0.00000000000000        0.77213263146259       -0.46520913422907
H           -0.00000000000000       -0.77213263072844       -0.46520913365673
3
 energy: -5.070544172184 gnorm: 0.000672090497 xtb: 6.6.1 (8d0f1dd)
O            0.00000000000000       -0.00000000022960        0.10479600998017
H            0.00000000000000        0.77238110210835       -0.46466400507958
H           -0.00000000000000       -0.77238110187875       -0.46466400490059
