      -----------------------------------------------------------      
     |                   =====================                   |     
     |                           x T B                           |     
     |                   =====================                   |     
     |                         S. Grimme                         |     
     |          Mulliken Center for Theoretical Chemistry        |     
     |                    University of Bonn                     |     
      -----------------------------------------------------------      

   * xtb version 6.6.1 (8d0f1dd) compiled by 'stahn@M-Bot' on 2023-08-01

   xtb is free software: you can redistribute it and/or modify it under
   the terms of the GNU Lesser General Public License as published by
   the Free Software Foundation, either version 3 of the License, or
   (at your option) any later version.
   
   xtb is distributed in the hope that it will be useful,
   but WITHOUT ANY WARRANTY; without even the implied warranty of
   MERCHANTABILITY or FITNESS FOR A PARTICULAR PURPOSE.  See the
   GNU Lesser General Public License for more details.
   
   Cite this work as:
   * C. Bannwarth, E. Caldeweyher, S. Ehlert, A. Hansen, P. Pracht,
     J. Seibert, S. Spicher, S. Grimme, WIREs Comput. Mol. Sci., 2020, 11,
     e01493. DOI: 10.1002/wcms.1493
   
   for GFN2-xTB:
   * C. Bannwarth, S. Ehlert and S. Grimme., J. Chem. Theory Comput., 2019,
     15, 1652-1671. DOI: 10.1021/acs.jctc.8b01176
   for GFN1-xTB:
   * S. Grimme, C. Bannwarth, P. Shushkov, J. Chem. Theory Comput., 2017,
     13, 1989-2009. DOI: 10.1021/acs.jctc.7b00118
   for GFN0-xTB:
   * P. Pracht, E. Caldeweyher, S. Ehlert, S. Grimme, ChemRxiv, 2019, preprint.
     DOI: 10.26434/chemrxiv.8326202.v1
   for GFN-FF:
   * S. Spicher and S. Grimme, Angew. Chem. Int. Ed., 2020, 59, 15665-15673.
     DOI: 10.1002/anie.202004239
   
   for ALPB and GBSA implicit solvation:
   * S. Ehlert, M. Stahn, S. Spicher, S. Grimme, J. Chem. Theory Comput.,
     2021, 17, 4250-4261. DOI: 10.1021/acs.jctc.1c00471
   
   for DFT-D4:
   * E. Caldeweyher, C. Bannwarth and S. Grimme, J. Chem. Phys., 2017,
     147, 034112. DOI: 10.1063/1.4993215
   * E. Caldeweyher, S. Ehlert, A. Hansen, H. Neugebauer, S. Spicher,
     C. Bannwarth and S. Grimme, J. Chem. Phys., 2019, 150, 154122.
     DOI: 10.1063/1.5090222
   * E. Caldeweyher, J.-M. Mewes, S. Ehlert and S. Grimme, Phys. Chem. Chem. Phys.
     2020, 22, 8499-8512. DOI: 10.1039/D0CP00502A
   
   for sTDA-xTB:
   * S. Grimme and C. Bannwarth, J. Chem. Phys., 2016, 145, 054103.
     DOI: 10.1063/1.4959605
   
   in the mass-spec context:
   * V. Asgeirsson, C. Bauer and S. Grimme, Chem. Sci., 2017, 8, 4879.
     DOI: 10.1039/c7sc00601b
   * J. Koopman and S. Grimme, ACS Omega 2019, 4, 12, 15120-15133.
     DOI: 10.1021/acsomega.9b02011
   
   for metadynamics refer to:
   * S. Grimme, J. Chem. Theory Comput., 2019, 155, 2847-2862
     DOI: 10.1021/acs.jctc.9b00143
   
   for SPH calculations refer to:
   * S. Spicher and S. Grimme, J. Chem. Theory Comput., 2021, 17, 1701-1714
     DOI: 10.1021/acs.jctc.0c01306
   
   with help from (in alphabetical order)
   P. Atkinson, C. Bannwarth, F. Bohle, G. Brandenburg, E. Caldeweyher
   M. Checinski, S. Dohm, S. Ehlert, S. Ehrlich, I. Gerasimov, C. Hölzer
   A. Katbashev, J. Koopman, C. Lavigne, S. Lehtola, F. März, M. Müller,
   F. Musil, H. Neugebauer, J. Pisarek, C. Plett, P. Pracht, F. Pultar,
   J. Seibert, P. Shushkov, S. Spicher, M. Stahn, M. Steiner, T. Strunk,
   J. Stückrath, T. Rose, and J. Unsleber
   
 * started run on 2025/08/26 at 12:19:44.541     

           -------------------------------------------------
          |                Calculation Setup                |
           -------------------------------------------------

          program call               : xtb conf.xyz --opt tight --chrg 0 --uhf 0 --gfn2
          coordinate file            : conf.xyz
          omp threads                :                     1

   ID    Z sym.   atoms
    1    6 C      1-4
    2    1 H      5-14

           -------------------------------------------------
          |                 G F N 2 - x T B                 |
           -------------------------------------------------

        Reference                      10.1021/acs.jctc.8b01176
      * Hamiltonian:
        H0-scaling (s, p, d)           1.850000    2.230000    2.230000
        zeta-weighting                 0.500000
      * Dispersion:
        s8                             2.700000
        a1                             0.520000
        a2                             5.000000
        s9                             5.000000
      * Repulsion:
        kExp                           1.500000    1.000000
        rExp                           1.000000
      * Coulomb:
        alpha                          2.000000
        third order                    shell-resolved
        anisotropic                    true
        a3                             3.000000
        a5                             4.000000
        cn-shift                       1.200000
        cn-exp                         4.000000
        max-rad                        5.000000

q/qsh data taken from xtbrestart
CAMM data taken from xtbrestart

          ...................................................
          :                      SETUP                      :
          :.................................................:
          :  # basis functions                  26          :
          :  # atomic orbitals                  26          :
          :  # shells                           18          :
          :  # electrons                        26          :
          :  max. iterations                   250          :
          :  Hamiltonian                  GFN2-xTB          :
          :  restarted?                       true          :
          :  GBSA solvation                  false          :
          :  PC potential                    false          :
          :  electronic temp.          300.0000000     K    :
          :  accuracy                    1.0000000          :
          :  -> integral cutoff          0.2500000E+02      :
          :  -> integral neglect         0.1000000E-07      :
          :  -> SCF convergence          0.1000000E-05 Eh   :
          :  -> wf. convergence          0.1000000E-03 e    :
          :  Broyden damping             0.4000000          :
          ...................................................

 iter      E             dE          RMSdq      gap      omega  full diag
   1    -13.8663069 -0.138663E+02  0.246E+00   14.28       0.0  T
   2    -13.8677746 -0.146774E-02  0.147E+00   14.26       1.0  T
   3    -13.8682141 -0.439505E-03  0.155E-01   14.25       1.0  T
   4    -13.8682221 -0.799601E-05  0.880E-02   14.26       1.0  T
   5    -13.8682222 -0.105060E-06  0.144E-02   14.25       1.9  T
   6    -13.8682229 -0.657728E-06  0.305E-03   14.25       8.7  T
   7    -13.8682229 -0.940992E-08  0.620E-04   14.25      43.1  T
   8    -13.8682229 -0.118429E-08  0.265E-04   14.25     100.8  T

   *** convergence criteria satisfied after 8 iterations ***

         #    Occupation            Energy/Eh            Energy/eV
      -------------------------------------------------------------
         1        2.0000           -0.6175760             -16.8051
       ...           ...                  ...                  ...
         7        2.0000           -0.4849549             -13.1963
         8        2.0000           -0.4667288             -12.7003
         9        2.0000           -0.4612583             -12.5515
        10        2.0000           -0.4481749             -12.1955
        11        2.0000           -0.4255528             -11.5799
        12        2.0000           -0.4227137             -11.5026
        13        2.0000           -0.4223787             -11.4935 (HOMO)
        14                          0.1014549               2.7607 (LUMO)
        15                          0.1088495               2.9619
        16                          0.1295081               3.5241
        17                          0.1442934               3.9264
        18                          0.1453520               3.9552
       ...                                ...                  ...
        26                          0.2946227               8.0171
      -------------------------------------------------------------
                  HL-Gap            0.5238336 Eh           14.2542 eV
             Fermi-level           -0.1604619 Eh           -4.3664 eV

 SCC (total)                   0 d,  0 h,  0 min,  0.033 sec
 SCC setup                      ...        0 min,  0.004 sec ( 11.415%)
 Dispersion                     ...        0 min,  0.000 sec (  0.587%)
 classical contributions        ...        0 min,  0.000 sec (  0.165%)
 integral evaluation            ...        0 min,  0.004 sec ( 11.672%)
 iterations                     ...        0 min,  0.020 sec ( 61.968%)
 molecular gradient             ...        0 min,  0.003 sec (  9.466%)
 printout                       ...        0 min,  0.001 sec (  4.576%)

         :::::::::::::::::::::::::::::::::::::::::::::::::::::
         ::                     SUMMARY                     ::
         :::::::::::::::::::::::::::::::::::::::::::::::::::::
         :: total energy             -13.663867051362 Eh    ::
         :: gradient norm              0.015311316860 Eh/a0 ::
         :: HOMO-LUMO gap             14.254237934054 eV    ::
         ::.................................................::
         :: SCC energy               -13.868222897391 Eh    ::
         :: -> isotropic ES            0.002835668620 Eh    ::
         :: -> anisotropic ES          0.005159767842 Eh    ::
         :: -> anisotropic XC          0.009187207447 Eh    ::
         :: -> dispersion             -0.006303358559 Eh    ::
         :: repulsion energy           0.204348590227 Eh    ::
         :: add. restraining           0.000000000000 Eh    ::
         :: total charge               0.000000000000 e     ::
         :::::::::::::::::::::::::::::::::::::::::::::::::::::

      ----------------------------------------------------------- 
     |                   =====================                   |
     |                        A N C O P T                        |
     |                   =====================                   |
     |               Approximate Normal Coordinate               |
     |                Rational Function Optimizer                |
      ----------------------------------------------------------- 

          ...................................................
          :                      SETUP                      :
          :.................................................:
          :   optimization level             tight          :
          :   max. optcycles                   200          :
          :   ANC micro-cycles                  20          :
          :   degrees of freedom                36          :
          :.................................................:
          :   RF solver                   davidson          :
          :   write xtbopt.log                true          :
          :   linear?                        false          :
          :   energy convergence         0.1000000E-05 Eh   :
          :   grad. convergence          0.8000000E-03 Eh/α :
          :   maxmium RF displ.          1.0000000          :
          :   Hlow (freq-cutoff)         0.1000000E-01      :
          :   Hmax (freq-cutoff)         5.0000000          :
          :   S6 in model hess.         20.0000000          :
          ...................................................

generating ANC from model Hessian ...
Using Lindh-Hessian (1995)
 Shifting diagonal of input Hessian by   5.962267235685723E-003
 Lowest  eigenvalues of input Hessian
    0.000000    0.000000    0.000000    0.000000    0.000000    0.000000
    0.010000    0.012716    0.013780    0.020548    0.024662    0.045351
    0.050583    0.057773    0.058204    0.060077    0.061274    0.066842
 Highest eigenvalues
    1.100912    1.134668    1.143217    1.202161    1.244674    1.277918
 

........................................................................
.............................. CYCLE    1 ..............................
........................................................................

 iter      E             dE          RMSdq      gap      omega  full diag
   1    -13.8682229 -0.138682E+02  0.292E-05   14.25       0.0  T
   2    -13.8682229 -0.475531E-11  0.123E-05   14.25    2177.5  T
   3    -13.8682229 -0.120792E-12  0.671E-06   14.25    3984.6  T
     SCC iter.                  ...        0 min,  0.001 sec
     gradient                   ...        0 min,  0.001 sec
 * total energy  :   -13.6638671 Eh     change       -0.2181011E-10 Eh
   gradient norm :     0.0153114 Eh/α   predicted     0.0000000E+00 (-100.00%)
   displ. norm   :     0.0562834 α      lambda       -0.4438426E-03
   maximum displ.:     0.0309974 α      in ANC's #2, #14, #9, ...

........................................................................
.............................. CYCLE    2 ..............................
........................................................................

 iter      E             dE          RMSdq      gap      omega  full diag
   1    -13.8734239 -0.138734E+02  0.674E-02   14.25       0.0  T
   2    -13.8734277 -0.378999E-05  0.382E-02   14.26       1.0  T
   3    -13.8734278 -0.139544E-06  0.820E-03   14.26       3.3  T
   4    -13.8734278 -0.681111E-08  0.147E-03   14.26      18.2  T
   5    -13.8734278 -0.772900E-09  0.442E-04   14.26      60.5  T
   6    -13.8734278 -0.279078E-09  0.119E-04   14.26     224.3  T
     SCC iter.                  ...        0 min,  0.001 sec
     gradient                   ...        0 min,  0.001 sec
 * total energy  :   -13.6641320 Eh     change       -0.2649470E-03 Eh
   gradient norm :     0.0052551 Eh/α   predicted    -0.2226244E-03 ( -15.97%)
   displ. norm   :     0.0369859 α      lambda       -0.5677055E-04
   maximum displ.:     0.0274936 α      in ANC's #2, #4, #1, ...

........................................................................
.............................. CYCLE    3 ..............................
........................................................................

 iter      E             dE          RMSdq      gap      omega  full diag
   1    -13.8751936 -0.138752E+02  0.206E-02   14.28       0.0  T
   2    -13.8751943 -0.673958E-06  0.110E-02   14.28       2.4  T
   3    -13.8751943 -0.104811E-07  0.360E-03   14.28       7.4  T
   4    -13.8751943 -0.725684E-09  0.384E-04   14.28      69.6  T
   5    -13.8751943 -0.992255E-10  0.651E-05   14.28     410.6  T
     SCC iter.                  ...        0 min,  0.001 sec
     gradient                   ...        0 min,  0.001 sec
 * total energy  :   -13.6641631 Eh     change       -0.3107677E-04 Eh
   gradient norm :     0.0008941 Eh/α   predicted    -0.2842427E-04 (  -8.54%)
   displ. norm   :     0.0262693 α      lambda       -0.4927265E-05
   maximum displ.:     0.0183302 α      in ANC's #1, #2, #4, ...

........................................................................
.............................. CYCLE    4 ..............................
........................................................................

 iter      E             dE          RMSdq      gap      omega  full diag
   1    -13.8751106 -0.138751E+02  0.107E-02   14.27       0.0  T
   2    -13.8751106 -0.284015E-07  0.647E-03   14.27       4.1  T
   3    -13.8751106 -0.928203E-09  0.592E-04   14.27      45.1  T
   4    -13.8751106 -0.144776E-08  0.183E-04   14.27     146.3  T
     SCC iter.                  ...        0 min,  0.001 sec
     gradient                   ...        0 min,  0.001 sec
 * total energy  :   -13.6641675 Eh     change       -0.4377862E-05 Eh
   gradient norm :     0.0006076 Eh/α   predicted    -0.2463686E-05 ( -43.72%)
   displ. norm   :     0.0218151 α      lambda       -0.1936187E-05
   maximum displ.:     0.0200600 α      in ANC's #1, #4, #2, ...

........................................................................
.............................. CYCLE    5 ..............................
........................................................................

 iter      E             dE          RMSdq      gap      omega  full diag
   1    -13.8749124 -0.138749E+02  0.620E-03   14.27       0.0  T
   2    -13.8749124 -0.505776E-08  0.367E-03   14.27       7.3  T
   3    -13.8749124 -0.588761E-09  0.238E-04   14.27     112.3  T
   4    -13.8749124 -0.220517E-10  0.100E-04   14.27     266.4  T
     SCC iter.                  ...        0 min,  0.001 sec
     gradient                   ...        0 min,  0.001 sec
 * total energy  :   -13.6641698 Eh     change       -0.2346955E-05 Eh
   gradient norm :     0.0004189 Eh/α   predicted    -0.9694120E-06 ( -58.69%)
   displ. norm   :     0.0176100 α      lambda       -0.1302370E-05
   maximum displ.:     0.0170850 α      in ANC's #1, #4, #2, ...

........................................................................
.............................. CYCLE    6 ..............................
........................................................................

 iter      E             dE          RMSdq      gap      omega  full diag
   1    -13.8749373 -0.138749E+02  0.537E-03   14.27       0.0  T
   2    -13.8749373 -0.226639E-08  0.321E-03   14.27       8.3  T
   3    -13.8749373 -0.265912E-09  0.165E-04   14.27     162.1  T
   4    -13.8749373 -0.910152E-10  0.749E-05   14.27     356.7  T
     SCC iter.                  ...        0 min,  0.001 sec
     gradient                   ...        0 min,  0.001 sec
 * total energy  :   -13.6641715 Eh     change       -0.1660663E-05 Eh
   gradient norm :     0.0001596 Eh/α   predicted    -0.6516813E-06 ( -60.76%)
   displ. norm   :     0.0140901 α      lambda       -0.8204981E-06
   maximum displ.:     0.0139145 α      in ANC's #1, #2, #7, ...

........................................................................
.............................. CYCLE    7 ..............................
........................................................................

 iter      E             dE          RMSdq      gap      omega  full diag
   1    -13.8749860 -0.138750E+02  0.387E-03   14.27       0.0  T
   2    -13.8749860 -0.457133E-09  0.231E-03   14.27      11.6  T
   3    -13.8749860 -0.162643E-09  0.995E-05   14.27     268.7  T
   4    -13.8749860 -0.110489E-10  0.473E-05   14.27     565.1  T
     SCC iter.                  ...        0 min,  0.001 sec
     gradient                   ...        0 min,  0.001 sec
 * total energy  :   -13.6641726 Eh     change       -0.1104917E-05 Eh
   gradient norm :     0.0001307 Eh/α   predicted    -0.4101565E-06 ( -62.88%)
   displ. norm   :     0.0123469 α      lambda       -0.6300328E-06
   maximum displ.:     0.0118821 α      in ANC's #1, #2, #4, ...

........................................................................
.............................. CYCLE    8 ..............................
........................................................................

 iter      E             dE          RMSdq      gap      omega  full diag
   1    -13.8749921 -0.138750E+02  0.341E-03   14.27       0.0  T
   2    -13.8749921 -0.270962E-09  0.204E-03   14.27      13.1  T
   3    -13.8749921 -0.106112E-09  0.723E-05   14.27     369.4  T
   4    -13.8749921 -0.473221E-11  0.338E-05   14.27     790.5  T
     SCC iter.                  ...        0 min,  0.001 sec
     gradient                   ...        0 min,  0.001 sec
 * total energy  :   -13.6641735 Eh     change       -0.8855210E-06 Eh
   gradient norm :     0.0001454 Eh/α   predicted    -0.3160918E-06 ( -64.30%)
   displ. norm   :     0.0139635 α      lambda       -0.6353885E-06
   maximum displ.:     0.0125685 α      in ANC's #1, #2, #4, ...

   *** GEOMETRY OPTIMIZATION CONVERGED AFTER 8 ITERATIONS ***

------------------------------------------------------------------------
 total energy gain   :        -0.0003064 Eh       -0.1923 kcal/mol
 total RMSD          :         0.0388500 a0        0.0206 Å
 total power (kW/mol):        -0.1005565 (step)  -20.7526 (real)
------------------------------------------------------------------------

 ANCopt (total)                0 d,  0 h,  0 min,  0.039 sec
 optimizer setup                ...        0 min,  0.002 sec (  6.271%)
 model hessian                  ...        0 min,  0.006 sec ( 16.406%)
 ANC generation                 ...        0 min,  0.000 sec (  1.147%)
 coordinate transformation      ...        0 min,  0.000 sec (  0.187%)
 single point calculation       ...        0 min,  0.023 sec ( 59.341%)
 optimization log               ...        0 min,  0.002 sec (  4.148%)
 hessian update                 ...        0 min,  0.000 sec (  0.459%)
 rational function              ...        0 min,  0.003 sec (  8.521%)

================
 final structure:
================
14
 xtb: 6.6.1 (8d0f1dd)
C           -1.60531390918748       -0.03112078357454       -0.42207677720980
C           -0.49532986506359       -0.82397677717237        0.25799188993789
C            0.90346499681140       -0.43136489583982       -0.21849876116177
C            1.29386731809873        0.98906793671381        0.17282613144572
H           -1.52985369294153       -0.12209519348708       -1.50373603721924
H           -2.57941994318493       -0.40479328434897       -0.11408527226326
H           -1.54983570986620        1.02212790376993       -0.15993579339915
H           -0.55923487243308       -0.68222385116726        1.33945730461669
H           -0.64615082993224       -1.88727627721820        0.05532040034731
H            1.62639607691912       -1.12776122338101        0.21374114216299
H            0.95495128894063       -0.53492032111127       -1.30494738819626
H            2.32424045275199        1.18967414127590       -0.11258731555867
H            1.20357803419596        1.12565363268933        1.24853498489708
H            0.65864066489123        1.71900899285155       -0.32194823839953
 
 Bond Distances (Angstroems)
 ---------------------------
C1-C2=1.5242         C1-H5=1.0881         C1-H6=1.0878         C1-H7=1.0868         C2-C1=1.5242         C2-C3=1.5290         
C2-H8=1.0926         C2-H9=1.0929         C3-C2=1.5290         C3-C4=1.5242         C3-H10=1.0929        C3-H11=1.0926        
C4-C3=1.5242         C4-H12=1.0878        C4-H13=1.0881        C4-H14=1.0868        H5-C1=1.0881         H6-C1=1.0878         
H7-C1=1.0868         H8-C2=1.0926         H9-C2=1.0929         H10-C3=1.0929        H11-C3=1.0926        H12-C4=1.0878        
H13-C4=1.0881        H14-C4=1.0868        
 C  H  Rav=1.0896 sigma=0.0026  Rmin=1.0868  Rmax=1.0929    10
 C  C  Rav=1.5258 sigma=0.0023  Rmin=1.5242  Rmax=1.5290     3
 
 selected bond angles (degree)
 --------------------
H5-C1-C2=110.46                H6-C1-C2=110.31                H6-C1-H5=108.35                H7-C1-C2=111.06                
H7-C1-H5=108.50                H7-C1-H6=108.08                C3-C2-C1=113.18                H8-C2-C1=109.36                
H8-C2-C3=109.19                H9-C2-C1=108.84                H9-C2-C3=108.56                H9-C2-H8=107.56                
C4-C3-C2=113.18                H10-C3-C2=108.56               H10-C3-C4=108.84               H11-C3-C2=109.19               
H11-C3-C4=109.36               H11-C3-H10=107.56              H12-C4-C3=110.31               H13-C4-C3=110.46               
H13-C4-H12=108.35              H14-C4-C3=111.06               H14-C4-H12=108.08              H14-C4-H13=108.50              
 
 selected dihedral angles (degree)
 ---------------------------------
C3-C2-C1-H5= 55.38            C3-C2-C1-H6=175.14            C3-C2-C1-H7=294.95            H8-C2-C1-H5=177.34            
H8-C2-C1-H6=297.11            H8-C2-C1-H7= 56.91            H9-C2-C1-H5=294.59            H9-C2-C1-H6= 54.35            
H9-C2-C1-H7=174.16            C4-C3-C2-C1= 66.38            C4-C3-C2-H8=304.31            C4-C3-C2-H9=187.32            
H10-C3-C2-C1=187.32           H10-C3-C2-H8= 65.26           H10-C3-C2-H9=308.27           H11-C3-C2-C1=304.31           
H11-C3-C2-H8=182.25           H11-C3-C2-H9= 65.26           H12-C4-C3-C2=175.14           H12-C4-C3-H10= 54.35          
H12-C4-C3-H11=297.11          H13-C4-C3-C2= 55.38           H13-C4-C3-H10=294.59          H13-C4-C3-H11=177.34          
H14-C4-C3-C2=294.95           H14-C4-C3-H10=174.16          H14-C4-C3-H11= 56.91          
           -------------------------------------------------
          |                Final Singlepoint                |
           -------------------------------------------------

          ...................................................
          :                      SETUP                      :
          :.................................................:
          :  # basis functions                  26          :
          :  # atomic orbitals                  26          :
          :  # shells                           18          :
          :  # electrons                        26          :
          :  max. iterations                   250          :
          :  Hamiltonian                  GFN2-xTB          :
          :  restarted?                      false          :
          :  GBSA solvation                  false          :
          :  PC potential                    false          :
          :  electronic temp.          300.0000000     K    :
          :  accuracy                    1.0000000          :
          :  -> integral cutoff          0.2500000E+02      :
          :  -> integral neglect         0.1000000E-07      :
          :  -> SCF convergence          0.1000000E-05 Eh   :
          :  -> wf. convergence          0.1000000E-03 e    :
          :  Broyden damping             0.4000000          :
          ...................................................

 iter      E             dE          RMSdq      gap      omega  full diag
   1    -13.8749921 -0.138750E+02  0.615E-06   14.27       0.0  T
   2    -13.8749921 -0.248690E-13  0.347E-06   14.27    7708.1  T
   3    -13.8749921 -0.532907E-14  0.449E-07   14.27   59490.5  T

   *** convergence criteria satisfied after 3 iterations ***

         #    Occupation            Energy/Eh            Energy/eV
      -------------------------------------------------------------
         1        2.0000           -0.6178205             -16.8118
       ...           ...                  ...                  ...
         7        2.0000           -0.4848280             -13.1928
         8        2.0000           -0.4664880             -12.6938
         9        2.0000           -0.4618480             -12.5675
        10        2.0000           -0.4480226             -12.1913
        11        2.0000           -0.4257831             -11.5861
        12        2.0000           -0.4232979             -11.5185
        13        2.0000           -0.4223673             -11.4932 (HOMO)
        14                          0.1018791               2.7723 (LUMO)
        15                          0.1112092               3.0262
        16                          0.1369508               3.7266
        17                          0.1488742               4.0511
        18                          0.1503064               4.0900
       ...                                ...                  ...
        26                          0.2993067               8.1446
      -------------------------------------------------------------
                  HL-Gap            0.5242464 Eh           14.2655 eV
             Fermi-level           -0.1602441 Eh           -4.3605 eV

 SCC (total)                   0 d,  0 h,  0 min,  0.003 sec
 SCC setup                      ...        0 min,  0.000 sec (  3.397%)
 Dispersion                     ...        0 min,  0.000 sec (  1.190%)
 classical contributions        ...        0 min,  0.000 sec (  0.681%)
 integral evaluation            ...        0 min,  0.001 sec ( 20.652%)
 iterations                     ...        0 min,  0.001 sec ( 25.498%)
 molecular gradient             ...        0 min,  0.001 sec ( 45.201%)
 printout                       ...        0 min,  0.000 sec (  2.492%)

         :::::::::::::::::::::::::::::::::::::::::::::::::::::
         ::                     SUMMARY                     ::
         :::::::::::::::::::::::::::::::::::::::::::::::::::::
         :: total energy             -13.664173451030 Eh    ::
         :: gradient norm              0.000145390360 Eh/a0 ::
         :: HOMO-LUMO gap             14.265470318129 eV    ::
         ::.................................................::
         :: SCC energy               -13.874992056266 Eh    ::
         :: -> isotropic ES            0.002971841842 Eh    ::
         :: -> anisotropic ES          0.004962537355 Eh    ::
         :: -> anisotropic XC          0.008995309667 Eh    ::
         :: -> dispersion             -0.006306834630 Eh    ::
         :: repulsion energy           0.210811516495 Eh    ::
         :: add. restraining           0.000000000000 Eh    ::
         :: total charge              -0.000000000000 e     ::
         :::::::::::::::::::::::::::::::::::::::::::::::::::::

           -------------------------------------------------
          |                Property Printout                |
           -------------------------------------------------

    * Orbital Energies and Occupations

         #    Occupation            Energy/Eh            Energy/eV
      -------------------------------------------------------------
         1        2.0000           -0.6178205             -16.8118
         2        2.0000           -0.5960176             -16.2185
         3        2.0000           -0.5731978             -15.5975
         4        2.0000           -0.5474096             -14.8958
         5        2.0000           -0.5063981             -13.7798
         6        2.0000           -0.5060877             -13.7713
         7        2.0000           -0.4848280             -13.1928
         8        2.0000           -0.4664880             -12.6938
         9        2.0000           -0.4618480             -12.5675
        10        2.0000           -0.4480226             -12.1913
        11        2.0000           -0.4257831             -11.5861
        12        2.0000           -0.4232979             -11.5185
        13        2.0000           -0.4223673             -11.4932 (HOMO)
        14                          0.1018791               2.7723 (LUMO)
        15                          0.1112092               3.0262
        16                          0.1369508               3.7266
        17                          0.1488742               4.0511
        18                          0.1503064               4.0900
        19                          0.1579371               4.2977
        20                          0.2030828               5.5262
        21                          0.2063423               5.6149
        22                          0.2345612               6.3827
        23                          0.2483955               6.7592
        24                          0.2787869               7.5862
       ...                                ...                  ...
        26                          0.2993067               8.1446
      -------------------------------------------------------------
                  HL-Gap            0.5242464 Eh           14.2655 eV
             Fermi-level           -0.1602441 Eh           -4.3605 eV

     #   Z          covCN         q      C6AA      α(0)
     1   6 C        3.751    -0.101    22.493     6.764
     2   6 C        3.800    -0.052    21.517     6.604
     3   6 C        3.800    -0.052    21.517     6.604
     4   6 C        3.751    -0.101    22.493     6.764
     5   1 H        0.925     0.033     2.549     2.497
     6   1 H        0.925     0.030     2.586     2.515
     7   1 H        0.925     0.035     2.510     2.478
     8   1 H        0.924     0.029     2.594     2.519
     9   1 H        0.924     0.026     2.644     2.543
    10   1 H        0.924     0.026     2.644     2.543
    11   1 H        0.924     0.029     2.594     2.519
    12   1 H        0.925     0.030     2.586     2.515
    13   1 H        0.925     0.033     2.549     2.497
    14   1 H        0.925     0.035     2.510     2.478

 Mol. C6AA /au·bohr⁶  :       1208.209638
 Mol. C8AA /au·bohr⁸  :      24487.334270
 Mol. α(0) /au        :         51.837142


Wiberg/Mayer (AO) data.
largest (>0.10) Wiberg bond orders for each atom

 ---------------------------------------------------------------------------
     #   Z sym  total        # sym  WBO       # sym  WBO       # sym  WBO
 ---------------------------------------------------------------------------
     1   6 C    3.997 --     2 C    1.020     5 H    0.988     6 H    0.988
                             7 H    0.986
     2   6 C    3.998 --     1 C    1.020     3 C    1.008     9 H    0.979
                             8 H    0.978
     3   6 C    3.998 --     4 C    1.020     2 C    1.008    10 H    0.979
                            11 H    0.978
     4   6 C    3.997 --     3 C    1.020    13 H    0.988    12 H    0.988
                            14 H    0.986
     5   1 H    0.999 --     1 C    0.988
     6   1 H    0.999 --     1 C    0.988
     7   1 H    0.999 --     1 C    0.986
     8   1 H    0.999 --     2 C    0.978
     9   1 H    0.999 --     2 C    0.979
    10   1 H    0.999 --     3 C    0.979
    11   1 H    0.999 --     3 C    0.978
    12   1 H    0.999 --     4 C    0.988
    13   1 H    0.999 --     4 C    0.988
    14   1 H    0.999 --     4 C    0.986
 ---------------------------------------------------------------------------

Topologies differ in total number of bonds
Writing topology from bond orders to xtbtopo.mol

molecular dipole:
                 x           y           z       tot (Debye)
 q only:       -0.005       0.015      -0.002
   full:       -0.004       0.012      -0.002       0.032
molecular quadrupole (traceless):
                xx          xy          yy          xz          yz          zz
 q only:       -0.016      -0.035       0.081       0.009      -0.021      -0.065
  q+dip:       -0.450      -0.109      -0.181      -0.103       0.067       0.630
   full:       -0.211      -0.057      -0.071      -0.048       0.026       0.281

           -------------------------------------------------
          |                Geometry Summary                 |
           -------------------------------------------------

      molecular mass/u    :       58.1223511
   center of mass at/Å    :        0.0183035      -0.0562980      -0.0547943
  moments of inertia/u·Å² :        0.3780267E+02   0.1049719E+03   0.1226836E+03
rotational constants/cm⁻¹ :        0.4459376E+00   0.1605919E+00   0.1374074E+00

 * 13 selected distances

     #   Z          #   Z                                           value/Å
     1   6 C        2   6 C                                       1.5241978
     2   6 C        3   6 C                                       1.5289915 (max)
     3   6 C        4   6 C                                       1.5241978
     1   6 C        5   1 H                                       1.0880981
     1   6 C        6   1 H                                       1.0878293
     1   6 C        7   1 H                                       1.0867975 (min)
     2   6 C        8   1 H                                       1.0925866
     2   6 C        9   1 H                                       1.0928992
     3   6 C       10   1 H                                       1.0928992
     3   6 C       11   1 H                                       1.0925866
     4   6 C       12   1 H                                       1.0878294
     4   6 C       13   1 H                                       1.0880981
     4   6 C       14   1 H                                       1.0867975

 * 2 distinct bonds (by element types)

   Z      Z             #   av. dist./Å        max./Å        min./Å
   1 H    6 C          10     1.0896422     1.0928992     1.0867975
   6 C    6 C           3     1.5257957     1.5289915     1.5241978


optimized geometry written to: xtbopt.xyz


           -------------------------------------------------
          | TOTAL ENERGY              -13.664173451030 Eh   |
          | GRADIENT NORM               0.000145390360 Eh/α |
          | HOMO-LUMO GAP              14.265470318129 eV   |
           -------------------------------------------------

------------------------------------------------------------------------
 * finished run on 2025/08/26 at 12:19:44.721     
------------------------------------------------------------------------
 total:
 * wall-time:     0 d,  0 h,  0 min,  0.148 sec
 *  cpu-time:     0 d,  0 h,  0 min,  0.075 sec
 * ratio c/w:     0.510 speedup
 SCF:
 * wall-time:     0 d,  0 h,  0 min,  0.034 sec
 *  cpu-time:     0 d,  0 h,  0 min,  0.013 sec
 * ratio c/w:     0.372 speedup
 ANC optimizer:
 * wall-time:     0 d,  0 h,  0 min,  0.046 sec
 *  cpu-time:     0 d,  0 h,  0 min,  0.037 sec
 * ratio c/w:     0.806 speedup

