      -----------------------------------------------------------      
     |                   =====================                   |     
     |                           x T B                           |     
     |                   =====================                   |     
     |                         S. Grimme                         |     
     |          Mulliken Center for Theoretical Chemistry        |     
     |                    University of Bonn                     |     
      -----------------------------------------------------------      

   * xtb version 6.6.1 (8d0f1dd) compiled by 'stahn@M-Bot' on 2023-08-01

   xtb is free software: you can redistribute it and/or modify it under
   the terms of the GNU Lesser General Public License as published by
   the Free Software Foundation, either version 3 of the License, or
   (at your option) any later version.
   
   xtb is distributed in the hope that it will be useful,
   but WITHOUT ANY WARRANTY; without even the implied warranty of
   MERCHANTABILITY or FITNESS FOR A PARTICULAR PURPOSE.  See the
   GNU Lesser General Public License for more details.
   
   Cite this work as:
   * C. Bannwarth, E. Caldeweyher, S. Ehlert, A. Hansen, P. Pracht,
     J. Seibert, S. Spicher, S. Grimme, WIREs Comput. Mol. Sci., 2020, 11,
     e01493. DOI: 10.1002/wcms.1493
   
   for GFN2-xTB:
   * C. Bannwarth, S. Ehlert and S. Grimme., J. Chem. Theory Comput., 2019,
     15, 1652-1671. DOI: 10.1021/acs.jctc.8b01176
   for GFN1-xTB:
   * S. Grimme, C. Bannwarth, P. Shushkov, J. Chem. Theory Comput., 2017,
     13, 1989-2009. DOI: 10.1021/acs.jctc.7b00118
   for GFN0-xTB:
   * P. Pracht, E. Caldeweyher, S. Ehlert, S. Grimme, ChemRxiv, 2019, preprint.
     DOI: 10.26434/chemrxiv.8326202.v1
   for GFN-FF:
   * S. Spicher and S. Grimme, Angew. Chem. Int. Ed., 2020, 59, 15665-15673.
     DOI: 10.1002/anie.202004239
   
   for ALPB and GBSA implicit solvation:
   * S. Ehlert, M. Stahn, S. Spicher, S. Grimme, J. Chem. Theory Comput.,
     2021, 17, 4250-4261. DOI: 10.1021/acs.jctc.1c00471
   
   for DFT-D4:
   * E. Caldeweyher, C. Bannwarth and S. Grimme, J. Chem. Phys., 2017,
     147, 034112. DOI: 10.1063/1.4993215
   * E. Caldeweyher, S. Ehlert, A. Hansen, H. Neugebauer, S. Spicher,
     C. Bannwarth and S. Grimme, J. Chem. Phys., 2019, 150, 154122.
     DOI: 10.1063/1.5090222
   * E. Caldeweyher, J.-M. Mewes, S. Ehlert and S. Grimme, Phys. Chem. Chem. Phys.
     2020, 22, 8499-8512. DOI: 10.1039/D0CP00502A
   
   for sTDA-xTB:
   * S. Grimme and C. Bannwarth, J. Chem. Phys., 2016, 145, 054103.
     DOI: 10.1063/1.4959605
   
   in the mass-spec context:
   * V. Asgeirsson, C. Bauer and S. Grimme, Chem. Sci., 2017, 8, 4879.
     DOI: 10.1039/c7sc00601b
   * J. Koopman and S. Grimme, ACS Omega 2019, 4, 12, 15120-15133.
     DOI: 10.1021/acsomega.9b02011
   
   for metadynamics refer to:
   * S. Grimme, J. Chem. Theory Comput., 2019, 155, 2847-2862
     DOI: 10.1021/acs.jctc.9b00143
   
   for SPH calculations refer to:
   * S. Spicher and S. Grimme, J. Chem. Theory Comput., 2021, 17, 1701-1714
     DOI: 10.1021/acs.jctc.0c01306
   
   with help from (in alphabetical order)
   P. Atkinson, C. Bannwarth, F. Bohle, G. Brandenburg, E. Caldeweyher
   M. Checinski, S. Dohm, S. Ehlert, S. Ehrlich, I. Gerasimov, C. Hölzer
   A. Katbashev, J. Koopman, C. Lavigne, S. Lehtola, F. März, M. Müller,
   F. Musil, H. Neugebauer, J. Pisarek, C. Plett, P. Pracht, F. Pultar,
   J. Seibert, P. Shushkov, S. Spicher, M. Stahn, M. Steiner, T. Strunk,
   J. Stückrath, T. Rose, and J. Unsleber
   
 * started run on 2025/10/06 at 17:40:01.879     

           -------------------------------------------------
          |                Calculation Setup                |
           -------------------------------------------------

          program call               : xtb conf.xyz --opt tight --chrg 1 --uhf 0 --gfn2 --input constraints.inp
          coordinate file            : conf.xyz
          omp threads                :                     1

########################################################################
[WARNING] Please study the warnings concerning your input carefully
-2- userdata_read: could not find 'constraints.inp'
-1- set_rdcontrol: could not find 'constraints.inp'
########################################################################

           -------------------------------------------------
          |                 G F N 2 - x T B                 |
           -------------------------------------------------

        Reference                      10.1021/acs.jctc.8b01176
      * Hamiltonian:
        H0-scaling (s, p, d)           1.850000    2.230000    2.230000
        zeta-weighting                 0.500000
      * Dispersion:
        s8                             2.700000
        a1                             0.520000
        a2                             5.000000
        s9                             5.000000
      * Repulsion:
        kExp                           1.500000    1.000000
        rExp                           1.000000
      * Coulomb:
        alpha                          2.000000
        third order                    shell-resolved
        anisotropic                    true
        a3                             3.000000
        a5                             4.000000
        cn-shift                       1.200000
        cn-exp                         4.000000
        max-rad                        5.000000


          ...................................................
          :                      SETUP                      :
          :.................................................:
          :  # basis functions                  27          :
          :  # atomic orbitals                  25          :
          :  # shells                           11          :
          :  # electrons                        20          :
          :  max. iterations                   250          :
          :  Hamiltonian                  GFN2-xTB          :
          :  restarted?                      false          :
          :  GBSA solvation                  false          :
          :  PC potential                    false          :
          :  electronic temp.          300.0000000     K    :
          :  accuracy                    1.0000000          :
          :  -> integral cutoff          0.2500000E+02      :
          :  -> integral neglect         0.1000000E-07      :
          :  -> SCF convergence          0.1000000E-05 Eh   :
          :  -> wf. convergence          0.1000000E-03 e    :
          :  Broyden damping             0.4000000          :
          ...................................................

 iter      E             dE          RMSdq      gap      omega  full diag
   1    -11.6766325 -0.116766E+02  0.921E+00    0.39       0.0  T
   2    -11.7168172 -0.401846E-01  0.645E+00    0.36       1.0  T
   3    -11.7238675 -0.705029E-02  0.261E+00    0.63       1.0  T
   4    -11.7270035 -0.313602E-02  0.595E-01    0.35       1.0  T
   5    -11.7272658 -0.262258E-03  0.485E-01    0.35       1.0  T
   6    -11.7276726 -0.406832E-03  0.345E-01    0.35       1.0  T
   7    -11.7279187 -0.246112E-03  0.254E-01    0.37       1.0  T
   8    -11.7280595 -0.140776E-03  0.931E-02    0.38       1.0  T
   9    -11.7280692 -0.976363E-05  0.422E-02    0.39       1.0  T
  10    -11.7280699 -0.670440E-06  0.221E-02    0.39       1.8  T
  11    -11.7280704 -0.454687E-06  0.125E-02    0.39       3.3  T
  12    -11.7280706 -0.217255E-06  0.545E-03    0.39       7.5  T
  13    -11.7280706 -0.186848E-08  0.348E-03    0.39      11.7  T
  14    -11.7280706 -0.381066E-08  0.792E-04    0.39      51.6  T
  15    -11.7280706 -0.120639E-09  0.853E-04    0.39      47.9  T

   *** convergence criteria satisfied after 15 iterations ***

         #    Occupation            Energy/Eh            Energy/eV
      -------------------------------------------------------------
         1        2.0000           -1.2902844             -35.1104
       ...           ...                  ...                  ...
         4        2.0000           -0.7900347             -21.4979
         5        2.0000           -0.7848463             -21.3568
         6        2.0000           -0.7655154             -20.8307
         7        2.0000           -0.6844407             -18.6246
         8        2.0000           -0.6807319             -18.5237
         9        1.9998           -0.6454512             -17.5636
        10        1.9990           -0.6439693             -17.5233 (HOMO)
        11        0.0013           -0.6297874             -17.1374 (LUMO)
        12                         -0.4280000             -11.6465
        13                         -0.2684525              -7.3050
        14                         -0.2423134              -6.5937
        15                         -0.2405290              -6.5451
       ...                                ...                  ...
        25                          0.1091961               2.9714
      -------------------------------------------------------------
                  HL-Gap            0.0141820 Eh            0.3859 eV
             Fermi-level           -0.6367876 Eh          -17.3279 eV

 SCC (total)                   0 d,  0 h,  0 min,  0.039 sec
 SCC setup                      ...        0 min,  0.005 sec ( 13.377%)
 Dispersion                     ...        0 min,  0.000 sec (  0.442%)
 classical contributions        ...        0 min,  0.000 sec (  0.176%)
 integral evaluation            ...        0 min,  0.015 sec ( 39.108%)
 iterations                     ...        0 min,  0.014 sec ( 37.015%)
 molecular gradient             ...        0 min,  0.003 sec (  6.482%)
 printout                       ...        0 min,  0.001 sec (  3.207%)

         :::::::::::::::::::::::::::::::::::::::::::::::::::::
         ::                     SUMMARY                     ::
         :::::::::::::::::::::::::::::::::::::::::::::::::::::
         :: total energy             -11.669676421013 Eh    ::
         :: gradient norm              0.065739264331 Eh/a0 ::
         :: HOMO-LUMO gap              0.385911799282 eV    ::
         ::.................................................::
         :: SCC energy               -11.728070584856 Eh    ::
         :: -> isotropic ES            0.120622683646 Eh    ::
         :: -> anisotropic ES         -0.007204744353 Eh    ::
         :: -> anisotropic XC          0.001110970140 Eh    ::
         :: -> dispersion             -0.002420757163 Eh    ::
         :: repulsion energy           0.058394252352 Eh    ::
         :: add. restraining           0.000000000000 Eh    ::
         :: total charge               1.000000000000 e     ::
         :::::::::::::::::::::::::::::::::::::::::::::::::::::

      ----------------------------------------------------------- 
     |                   =====================                   |
     |                        A N C O P T                        |
     |                   =====================                   |
     |               Approximate Normal Coordinate               |
     |                Rational Function Optimizer                |
      ----------------------------------------------------------- 

          ...................................................
          :                      SETUP                      :
          :.................................................:
          :   optimization level             tight          :
          :   max. optcycles                   200          :
          :   ANC micro-cycles                  20          :
          :   degrees of freedom                12          :
          :.................................................:
          :   RF solver                   davidson          :
          :   write xtbopt.log                true          :
          :   linear?                        false          :
          :   energy convergence         0.1000000E-05 Eh   :
          :   grad. convergence          0.8000000E-03 Eh/α :
          :   maxmium RF displ.          1.0000000          :
          :   Hlow (freq-cutoff)         0.1000000E-01      :
          :   Hmax (freq-cutoff)         5.0000000          :
          :   S6 in model hess.         20.0000000          :
          ...................................................

generating ANC from model Hessian ...
Using Lindh-Hessian (1995)
 Shifting diagonal of input Hessian by   0.000000000000000E+000
 Lowest  eigenvalues of input Hessian
    0.000000    0.000000    0.000000    0.000000    0.000000    0.000000
    0.014004    0.019031    0.048102    0.054370    0.082597    0.150706
    0.167526    0.202307    0.417535    0.637008    1.193440    1.281918
 Highest eigenvalues
    0.167526    0.202307    0.417535    0.637008    1.193440    1.281918
 

........................................................................
.............................. CYCLE    1 ..............................
........................................................................

 iter      E             dE          RMSdq      gap      omega  full diag
   1    -11.7280706 -0.117281E+02  0.745E-05    0.39       0.0  T
   2    -11.7280706 -0.425615E-11  0.345E-05    0.39    1184.7  T
   3    -11.7280706 -0.605738E-12  0.266E-05    0.39    1535.6  T
     SCC iter.                  ...        0 min,  0.001 sec
     gradient                   ...        0 min,  0.001 sec
 * total energy  :   -11.6696764 Eh     change       -0.1115179E-09 Eh
   gradient norm :     0.0657394 Eh/α   predicted     0.0000000E+00 (-100.00%)
   displ. norm   :     0.4269277 α      lambda       -0.2175623E-01
   maximum displ.:     0.2916744 α      in ANC's #4, #3, #8, ...

........................................................................
.............................. CYCLE    2 ..............................
........................................................................

 iter      E             dE          RMSdq      gap      omega  full diag
   1    -11.7305083 -0.117305E+02  0.187E+00    0.22       0.0  T
   2    -11.7312448 -0.736565E-03  0.119E+00    0.40       1.0  T
   3    -11.7321085 -0.863714E-03  0.461E-01    0.31       1.0  T
   4    -11.7321508 -0.422198E-04  0.317E-01    0.32       1.0  T
   5    -11.7322007 -0.498956E-04  0.258E-01    0.30       1.0  T
   6    -11.7322422 -0.415109E-04  0.155E-01    0.32       1.0  T
   7    -11.7322555 -0.133535E-04  0.155E-01    0.33       1.0  T
   8    -11.7322697 -0.141722E-04  0.335E-02    0.31       1.2  T
   9    -11.7322709 -0.119840E-05  0.181E-02    0.32       2.3  T
  10    -11.7322712 -0.325899E-06  0.122E-02    0.32       3.4  T
  11    -11.7322715 -0.326878E-06  0.736E-03    0.32       5.5  T
  12    -11.7322716 -0.558558E-07  0.790E-03    0.32       5.2  T
  13    -11.7322716 -0.219588E-07  0.118E-03    0.32      34.7  T
  14    -11.7322716 -0.108652E-08  0.160E-03    0.32      25.5  T
  15    -11.7322716 -0.968756E-09  0.506E-04    0.32      80.7  T
  16    -11.7322716 -0.129983E-09  0.101E-04    0.32     405.9  T
     SCC iter.                  ...        0 min,  0.002 sec
     gradient                   ...        0 min,  0.001 sec
 * total energy  :   -11.6835705 Eh     change       -0.1389405E-01 Eh
   gradient norm :     0.0355286 Eh/α   predicted    -0.1286084E-01 (  -7.44%)
   displ. norm   :     0.3254706 α      lambda       -0.5554401E-02
   maximum displ.:     0.2540312 α      in ANC's #2, #4, #8, ...

........................................................................
.............................. CYCLE    3 ..............................
........................................................................

 iter      E             dE          RMSdq      gap      omega  full diag
   1    -11.7327748 -0.117328E+02  0.213E+00    0.26       0.0  T
   2    -11.7328946 -0.119855E-03  0.158E+00    0.40       1.0  T
   3    -11.7344657 -0.157113E-02  0.413E-01    0.31       1.0  T
   4    -11.7344766 -0.108833E-04  0.354E-01    0.34       1.0  T
   5    -11.7345247 -0.480799E-04  0.272E-01    0.32       1.0  T
   6    -11.7345586 -0.339062E-04  0.124E-01    0.33       1.0  T
   7    -11.7345686 -0.100156E-04  0.142E-01    0.34       1.0  T
   8    -11.7345744 -0.574359E-05  0.891E-02    0.34       1.0  T
   9    -11.7345780 -0.365850E-05  0.347E-02    0.33       1.2  T
  10    -11.7345788 -0.785731E-06  0.918E-03    0.34       4.4  T
  11    -11.7345789 -0.118471E-06  0.904E-03    0.33       4.5  T
  12    -11.7345790 -0.430591E-07  0.374E-03    0.33      10.9  T
  13    -11.7345790 -0.239463E-07  0.104E-03    0.33      39.3  T
  14    -11.7345790 -0.104789E-08  0.134E-03    0.33      30.4  T
  15    -11.7345790 -0.729139E-09  0.431E-04    0.33      94.7  T
  16    -11.7345790 -0.691838E-10  0.130E-04    0.33     314.5  T
     SCC iter.                  ...        0 min,  0.002 sec
     gradient                   ...        0 min,  0.001 sec
 * total energy  :   -11.6884027 Eh     change       -0.4832186E-02 Eh
   gradient norm :     0.0300660 Eh/α   predicted    -0.3071390E-02 ( -36.44%)
   displ. norm   :     0.8226504 α      lambda       -0.1079017E-01
   maximum displ.:     0.7263713 α      in ANC's #2, #4, #8, ...

........................................................................
.............................. CYCLE    4 ..............................
........................................................................

 iter      E             dE          RMSdq      gap      omega  full diag
   1    -11.7343692 -0.117344E+02  0.225E+00    0.36       0.0  T
   2    -11.7344450 -0.757933E-04  0.121E+00    0.29       1.0  T
   3    -11.7341066  0.338389E-03  0.115E+00    0.41       1.0  T
   4    -11.7358740 -0.176748E-02  0.664E-01    0.33       1.0  T
   5    -11.7359659 -0.918529E-04  0.420E-01    0.34       1.0  T
   6    -11.7362283 -0.262400E-03  0.237E-01    0.36       1.0  T
   7    -11.7362378 -0.949531E-05  0.214E-01    0.39       1.0  T
   8    -11.7362994 -0.615671E-04  0.623E-02    0.39       1.0  T
   9    -11.7363033 -0.395067E-05  0.302E-02    0.39       1.4  T
  10    -11.7363041 -0.789232E-06  0.113E-02    0.39       3.6  T
  11    -11.7363042 -0.143814E-06  0.753E-03    0.39       5.4  T
  12    -11.7363043 -0.689132E-07  0.363E-03    0.39      11.3  T
  13    -11.7363043 -0.290557E-07  0.226E-03    0.39      18.1  T
  14    -11.7363043 -0.501869E-08  0.225E-03    0.39      18.1  T
  15    -11.7363043 -0.798202E-09  0.117E-03    0.39      34.7  T
  16    -11.7363043 -0.922387E-09  0.149E-04    0.39     273.3  T
  17    -11.7363043 -0.240519E-11  0.216E-04    0.39     189.4  T
     SCC iter.                  ...        0 min,  0.002 sec
     gradient                   ...        0 min,  0.001 sec
 * total energy  :   -11.6927209 Eh     change       -0.4318194E-02 Eh
   gradient norm :     0.0438128 Eh/α   predicted    -0.9046184E-02 ( 109.49%)
   displ. norm   :     0.2190360 α      lambda       -0.5145386E-02
   maximum displ.:     0.1525746 α      in ANC's #1, #2, #8, ...

........................................................................
.............................. CYCLE    5 ..............................
........................................................................

 iter      E             dE          RMSdq      gap      omega  full diag
   1    -11.7429013 -0.117429E+02  0.485E-01    0.50       0.0  T
   2    -11.7428665  0.347375E-04  0.344E-01    0.47       1.0  T
   3    -11.7428976 -0.310196E-04  0.246E-01    0.50       1.0  T
   4    -11.7429920 -0.944687E-04  0.114E-01    0.47       1.0  T
   5    -11.7429998 -0.776744E-05  0.494E-02    0.48       1.0  T
   6    -11.7430027 -0.286317E-05  0.322E-02    0.47       1.3  T
   7    -11.7430037 -0.107036E-05  0.174E-02    0.47       2.3  T
   8    -11.7430041 -0.331540E-06  0.109E-02    0.47       3.7  T
   9    -11.7430042 -0.114836E-06  0.487E-03    0.47       8.4  T
  10    -11.7430042 -0.202631E-07  0.199E-03    0.47      20.5  T
  11    -11.7430042 -0.381115E-08  0.128E-03    0.47      31.8  T
  12    -11.7430042 -0.418554E-09  0.403E-04    0.47     101.2  T
  13    -11.7430042 -0.184059E-09  0.212E-04    0.47     192.8  T
     SCC iter.                  ...        0 min,  0.002 sec
     gradient                   ...        0 min,  0.001 sec
 * total energy  :   -11.6970859 Eh     change       -0.4365025E-02 Eh
   gradient norm :     0.0354004 Eh/α   predicted    -0.2696123E-02 ( -38.23%)
   displ. norm   :     0.5596168 α      lambda       -0.1376170E-01
   maximum displ.:     0.4398803 α      in ANC's #1, #8, #10, ...

........................................................................
.............................. CYCLE    6 ..............................
........................................................................

 iter      E             dE          RMSdq      gap      omega  full diag
   1    -11.7518464 -0.117518E+02  0.198E+00    0.87       0.0  T
   2    -11.7453119  0.653449E-02  0.277E+00    0.57       1.0  T
   3    -11.7576535 -0.123415E-01  0.815E-01    0.71       1.0  T
   4    -11.7578874 -0.233965E-03  0.222E-01    0.71       1.0  T
   5    -11.7578497  0.377227E-04  0.215E-01    0.70       1.0  T
   6    -11.7579118 -0.620769E-04  0.776E-02    0.71       1.0  T
   7    -11.7579172 -0.537856E-05  0.598E-02    0.71       1.0  T
   8    -11.7579264 -0.921893E-05  0.340E-02    0.71       1.2  T
   9    -11.7579286 -0.222683E-05  0.154E-02    0.71       2.7  T
  10    -11.7579287 -0.396316E-07  0.153E-02    0.71       2.7  T
  11    -11.7579289 -0.248200E-06  0.981E-03    0.71       4.2  T
  12    -11.7579289 -0.230820E-07  0.423E-03    0.71       9.6  T
  13    -11.7579290 -0.121416E-07  0.140E-03    0.71      29.2  T
  14    -11.7579290 -0.206044E-08  0.369E-04    0.71     110.6  T
  15    -11.7579290 -0.112244E-09  0.297E-04    0.71     137.5  T
     SCC iter.                  ...        0 min,  0.002 sec
     gradient                   ...        0 min,  0.001 sec
 * total energy  :   -11.7074389 Eh     change       -0.1035301E-01 Eh
   gradient norm :     0.0284233 Eh/α   predicted    -0.9035734E-02 ( -12.72%)
   displ. norm   :     0.5686609 α      lambda       -0.9712504E-02
   maximum displ.:     0.3347273 α      in ANC's #1, #2, #10, ...

........................................................................
.............................. CYCLE    7 ..............................
........................................................................

 iter      E             dE          RMSdq      gap      omega  full diag
   1    -11.7499405 -0.117499E+02  0.240E+00    1.15       0.0  T
   2    -11.7400476  0.989284E-02  0.377E+00    0.70       1.0  T
   3    -11.7609827 -0.209350E-01  0.947E-01    0.89       1.0  T
   4    -11.7616992 -0.716487E-03  0.271E-01    0.93       1.0  T
   5    -11.7617220 -0.228230E-04  0.200E-01    0.91       1.0  T
   6    -11.7617696 -0.476523E-04  0.113E-01    0.91       1.0  T
   7    -11.7617876 -0.179536E-04  0.700E-02    0.92       1.0  T
   8    -11.7618011 -0.134584E-04  0.279E-02    0.92       1.5  T
   9    -11.7618021 -0.996111E-06  0.266E-02    0.92       1.5  T
  10    -11.7618024 -0.308190E-06  0.133E-02    0.92       3.1  T
  11    -11.7618025 -0.183187E-06  0.803E-03    0.92       5.1  T
  12    -11.7618026 -0.770396E-07  0.236E-03    0.92      17.3  T
  13    -11.7618026 -0.423209E-08  0.114E-03    0.92      35.7  T
  14    -11.7618026 -0.137283E-08  0.738E-04    0.92      55.3  T
  15    -11.7618026 -0.296556E-09  0.979E-05    0.92     417.0  T
     SCC iter.                  ...        0 min,  0.002 sec
     gradient                   ...        0 min,  0.001 sec
 * total energy  :   -11.7142260 Eh     change       -0.6787141E-02 Eh
   gradient norm :     0.0347728 Eh/α   predicted    -0.6426667E-02 (  -5.31%)
   displ. norm   :     0.5237551 α      lambda       -0.8539017E-02
   maximum displ.:     0.3053198 α      in ANC's #2, #3, #4, ...

........................................................................
.............................. CYCLE    8 ..............................
........................................................................

 iter      E             dE          RMSdq      gap      omega  full diag
   1    -11.7622404 -0.117622E+02  0.198E+00    1.36       0.0  T
   2    -11.7612914  0.948945E-03  0.238E+00    0.92       1.0  T
   3    -11.7680815 -0.679002E-02  0.526E-01    1.11       1.0  T
   4    -11.7681346 -0.531577E-04  0.212E-01    1.12       1.0  T
   5    -11.7681429 -0.829308E-05  0.122E-01    1.11       1.0  T
   6    -11.7681542 -0.112370E-04  0.771E-02    1.11       1.0  T
   7    -11.7681578 -0.369093E-05  0.560E-02    1.11       1.0  T
   8    -11.7681599 -0.207147E-05  0.120E-02    1.11       3.4  T
   9    -11.7681601 -0.150183E-06  0.697E-03    1.11       5.9  T
  10    -11.7681601 -0.657097E-07  0.410E-03    1.11      10.0  T
  11    -11.7681602 -0.209626E-07  0.155E-03    1.11      26.4  T
  12    -11.7681602 -0.255351E-08  0.927E-04    1.11      44.0  T
  13    -11.7681602 -0.141110E-08  0.418E-04    1.11      97.6  T
     SCC iter.                  ...        0 min,  0.002 sec
     gradient                   ...        0 min,  0.001 sec
 * total energy  :   -11.7220564 Eh     change       -0.7830401E-02 Eh
   gradient norm :     0.0324583 Eh/α   predicted    -0.5440711E-02 ( -30.52%)
   displ. norm   :     0.7989063 α      lambda       -0.1467047E-01
   maximum displ.:     0.4806794 α      in ANC's #3, #2, #4, ...

........................................................................
.............................. CYCLE    9 ..............................
........................................................................

 iter      E             dE          RMSdq      gap      omega  full diag
   1    -11.7696036 -0.117696E+02  0.326E+00    1.77       0.0  T
   2    -11.7743042 -0.470066E-02  0.276E+00    0.77       1.0  T
   3    -11.7808548 -0.655057E-02  0.929E-01    1.14       1.0  T
   4    -11.7810718 -0.216977E-03  0.607E-01    0.93       1.0  T
   5    -11.7814530 -0.381225E-03  0.341E-01    1.00       1.0  T
   6    -11.7815603 -0.107305E-03  0.286E-01    1.00       1.0  T
   7    -11.7816445 -0.841614E-04  0.121E-01    0.95       1.0  T
   8    -11.7816590 -0.145485E-04  0.762E-02    0.95       1.0  T
   9    -11.7816653 -0.629904E-05  0.240E-02    0.95       1.7  T
  10    -11.7816660 -0.728243E-06  0.151E-02    0.95       2.7  T
  11    -11.7816663 -0.228338E-06  0.527E-03    0.95       7.8  T
  12    -11.7816663 -0.281181E-07  0.203E-03    0.95      20.1  T
  13    -11.7816663 -0.524172E-08  0.889E-04    0.95      45.9  T
  14    -11.7816663 -0.103061E-08  0.157E-04    0.95     259.4  T
     SCC iter.                  ...        0 min,  0.002 sec
     gradient                   ...        0 min,  0.001 sec
 * total energy  :   -11.7263241 Eh     change       -0.4267686E-02 Eh
   gradient norm :     0.0508864 Eh/α   predicted    -0.1201694E-01 ( 181.58%)
   displ. norm   :     0.3638264 α      lambda       -0.1582246E-01
   maximum displ.:     0.2139651 α      in ANC's #4, #8, #5, ...

........................................................................
.............................. CYCLE   10 ..............................
........................................................................

 iter      E             dE          RMSdq      gap      omega  full diag
   1    -11.7436778 -0.117437E+02  0.425E+00    0.39       0.0  T
   2    -11.7500734 -0.639557E-02  0.403E+00    1.40       1.0  T
   3    -11.7684468 -0.183734E-01  0.119E+00    0.90       1.0  T
   4    -11.7686781 -0.231307E-03  0.959E-01    0.88       1.0  T
   5    -11.7689261 -0.247968E-03  0.603E-01    0.81       1.0  T
   6    -11.7689925 -0.664116E-04  0.487E-01    0.82       1.0  T
   7    -11.7690908 -0.983431E-04  0.289E-01    0.89       1.0  T
   8    -11.7691587 -0.679166E-04  0.142E-01    0.87       1.0  T
   9    -11.7691670 -0.830581E-05  0.219E-02    0.87       1.9  T
  10    -11.7691671 -0.101294E-06  0.210E-02    0.87       1.9  T
  11    -11.7691676 -0.461337E-06  0.128E-02    0.87       3.2  T
  12    -11.7691677 -0.145151E-06  0.302E-03    0.87      13.5  T
  13    -11.7691678 -0.133611E-07  0.131E-03    0.87      31.1  T
  14    -11.7691678 -0.149026E-08  0.106E-03    0.87      38.6  T
  15    -11.7691678 -0.668942E-09  0.748E-04    0.87      54.5  T
  16    -11.7691678 -0.296186E-09  0.160E-04    0.87     255.5  T
     SCC iter.                  ...        0 min,  0.002 sec
     gradient                   ...        0 min,  0.001 sec
 * total energy  :   -11.7272762 Eh     change       -0.9520433E-03 Eh
   gradient norm :     0.0501667 Eh/α   predicted    -0.8958442E-02 ( 840.97%)
   displ. norm   :     0.2509698 α      lambda       -0.7198113E-02
   maximum displ.:     0.1475440 α      in ANC's #1, #5, #2, ...

........................................................................
.............................. CYCLE   11 ..............................
........................................................................

 iter      E             dE          RMSdq      gap      omega  full diag
   1    -11.7770825 -0.117771E+02  0.156E+00    1.10       0.0  T
   2    -11.7777873 -0.704735E-03  0.121E+00    0.82       1.0  T
   3    -11.7793373 -0.155005E-02  0.412E-01    0.96       1.0  T
   4    -11.7793852 -0.478712E-04  0.308E-01    0.92       1.0  T
   5    -11.7794725 -0.872933E-04  0.212E-01    0.93       1.0  T
   6    -11.7795373 -0.647756E-04  0.101E-01    0.94       1.0  T
   7    -11.7795507 -0.134002E-04  0.623E-02    0.94       1.0  T
   8    -11.7795603 -0.959482E-05  0.312E-02    0.94       1.3  T
   9    -11.7795607 -0.470106E-06  0.299E-02    0.94       1.4  T
  10    -11.7795614 -0.710811E-06  0.485E-03    0.95       8.4  T
  11    -11.7795615 -0.128863E-07  0.411E-03    0.95       9.9  T
  12    -11.7795615 -0.115029E-07  0.131E-03    0.95      31.3  T
  13    -11.7795615 -0.130528E-08  0.552E-04    0.95      74.0  T
  14    -11.7795615 -0.147299E-09  0.870E-05    0.95     469.5  T
     SCC iter.                  ...        0 min,  0.002 sec
     gradient                   ...        0 min,  0.001 sec
 * total energy  :   -11.7281838 Eh     change       -0.9076003E-03 Eh
   gradient norm :     0.0360743 Eh/α   predicted    -0.3825749E-02 ( 321.52%)
   displ. norm   :     0.2093912 α      lambda       -0.5092264E-02
   maximum displ.:     0.1212827 α      in ANC's #1, #5, #2, ...

........................................................................
.............................. CYCLE   12 ..............................
........................................................................

 iter      E             dE          RMSdq      gap      omega  full diag
   1    -11.7748998 -0.117749E+02  0.846E-01    0.96       0.0  T
   2    -11.7749992 -0.993381E-04  0.649E-01    0.82       1.0  T
   3    -11.7752511 -0.251944E-03  0.309E-01    0.90       1.0  T
   4    -11.7753139 -0.627539E-04  0.169E-01    0.88       1.0  T
   5    -11.7753393 -0.254216E-04  0.868E-02    0.87       1.0  T
   6    -11.7753486 -0.929184E-05  0.665E-02    0.86       1.0  T
   7    -11.7753600 -0.113630E-04  0.280E-02    0.86       1.5  T
   8    -11.7753606 -0.672418E-06  0.175E-02    0.86       2.3  T
   9    -11.7753608 -0.199607E-06  0.102E-02    0.86       4.0  T
  10    -11.7753609 -0.986601E-07  0.421E-03    0.86       9.7  T
  11    -11.7753609 -0.112047E-07  0.191E-03    0.86      21.3  T
  12    -11.7753609 -0.326242E-08  0.652E-04    0.86      62.6  T
  13    -11.7753609 -0.584830E-09  0.274E-04    0.86     149.1  T
     SCC iter.                  ...        0 min,  0.002 sec
     gradient                   ...        0 min,  0.001 sec
 * total energy  :   -11.7309293 Eh     change       -0.2745583E-02 Eh
   gradient norm :     0.0125016 Eh/α   predicted    -0.2657770E-02 (  -3.20%)
   displ. norm   :     0.1431565 α      lambda       -0.9433700E-03
   maximum displ.:     0.0802234 α      in ANC's #4, #3, #2, ...

........................................................................
.............................. CYCLE   13 ..............................
........................................................................

 iter      E             dE          RMSdq      gap      omega  full diag
   1    -11.7771086 -0.117771E+02  0.457E-01    0.85       0.0  T
   2    -11.7771844 -0.757229E-04  0.487E-01    0.73       1.0  T
   3    -11.7773527 -0.168345E-03  0.143E-01    0.77       1.0  T
   4    -11.7773533 -0.629120E-06  0.544E-02    0.77       1.0  T
   5    -11.7773560 -0.262495E-05  0.300E-02    0.77       1.4  T
   6    -11.7773569 -0.970540E-06  0.198E-02    0.77       2.1  T
   7    -11.7773573 -0.318601E-06  0.978E-03    0.77       4.2  T
   8    -11.7773574 -0.958088E-07  0.656E-03    0.77       6.2  T
   9    -11.7773574 -0.365442E-07  0.264E-03    0.77      15.5  T
  10    -11.7773574 -0.940947E-08  0.978E-04    0.77      41.7  T
  11    -11.7773574 -0.897439E-09  0.363E-04    0.77     112.3  T
     SCC iter.                  ...        0 min,  0.002 sec
     gradient                   ...        0 min,  0.001 sec
 * total energy  :   -11.7315559 Eh     change       -0.6265188E-03 Eh
   gradient norm :     0.0139071 Eh/α   predicted    -0.4813490E-03 ( -23.17%)
   displ. norm   :     0.1310397 α      lambda       -0.7489064E-03
   maximum displ.:     0.0762432 α      in ANC's #4, #10, #2, ...

........................................................................
.............................. CYCLE   14 ..............................
........................................................................

 iter      E             dE          RMSdq      gap      omega  full diag
   1    -11.7785572 -0.117786E+02  0.482E-01    0.76       0.0  T
   2    -11.7787080 -0.150855E-03  0.635E-01    0.60       1.0  T
   3    -11.7789982 -0.290198E-03  0.203E-01    0.65       1.0  T
   4    -11.7790053 -0.705804E-05  0.941E-02    0.65       1.0  T
   5    -11.7790138 -0.855978E-05  0.281E-02    0.66       1.5  T
   6    -11.7790147 -0.899175E-06  0.194E-02    0.66       2.1  T
   7    -11.7790152 -0.453493E-06  0.118E-02    0.66       3.5  T
   8    -11.7790154 -0.242460E-06  0.435E-03    0.66       9.4  T
   9    -11.7790154 -0.263174E-07  0.238E-03    0.66      17.1  T
  10    -11.7790155 -0.639984E-08  0.155E-03    0.66      26.4  T
  11    -11.7790155 -0.191669E-08  0.541E-04    0.66      75.5  T
  12    -11.7790155 -0.172335E-09  0.304E-04    0.66     134.4  T
     SCC iter.                  ...        0 min,  0.002 sec
     gradient                   ...        0 min,  0.001 sec
 * total energy  :   -11.7321008 Eh     change       -0.5448962E-03 Eh
   gradient norm :     0.0105683 Eh/α   predicted    -0.3808823E-03 ( -30.10%)
   displ. norm   :     0.1937897 α      lambda       -0.9857505E-03
   maximum displ.:     0.0873288 α      in ANC's #8, #4, #10, ...

........................................................................
.............................. CYCLE   15 ..............................
........................................................................

 iter      E             dE          RMSdq      gap      omega  full diag
   1    -11.7799041 -0.117799E+02  0.424E-01    0.53       0.0  T
   2    -11.7799708 -0.666894E-04  0.226E-01    0.52       1.0  T
   3    -11.7799941 -0.233151E-04  0.136E-01    0.51       1.0  T
   4    -11.7800197 -0.256330E-04  0.702E-02    0.52       1.0  T
   5    -11.7800222 -0.243691E-05  0.603E-02    0.51       1.0  T
   6    -11.7800251 -0.290230E-05  0.445E-02    0.52       1.0  T
   7    -11.7800277 -0.261689E-05  0.278E-02    0.52       1.5  T
   8    -11.7800285 -0.798885E-06  0.458E-03    0.52       8.9  T
   9    -11.7800285 -0.236235E-07  0.177E-03    0.52      23.1  T
  10    -11.7800285 -0.393087E-08  0.101E-03    0.52      40.6  T
  11    -11.7800285 -0.197619E-08  0.319E-04    0.52     128.0  T
  12    -11.7800285 -0.109980E-09  0.131E-04    0.52     312.5  T
     SCC iter.                  ...        0 min,  0.002 sec
     gradient                   ...        0 min,  0.001 sec
 * total energy  :   -11.7327683 Eh     change       -0.6675700E-03 Eh
   gradient norm :     0.0111668 Eh/α   predicted    -0.5113829E-03 ( -23.40%)
   displ. norm   :     0.1140298 α      lambda       -0.5956411E-03
   maximum displ.:     0.0619036 α      in ANC's #8, #9, #12, ...

........................................................................
.............................. CYCLE   16 ..............................
........................................................................

 iter      E             dE          RMSdq      gap      omega  full diag
   1    -11.7791833 -0.117792E+02  0.504E-01    0.41       0.0  T
   2    -11.7792347 -0.513948E-04  0.387E-01    0.52       1.0  T
   3    -11.7794193 -0.184607E-03  0.113E-01    0.46       1.0  T
   4    -11.7794229 -0.355352E-05  0.682E-02    0.46       1.0  T
   5    -11.7794258 -0.294411E-05  0.447E-02    0.47       1.0  T
   6    -11.7794269 -0.102597E-05  0.296E-02    0.47       1.4  T
   7    -11.7794275 -0.592347E-06  0.339E-02    0.47       1.2  T
   8    -11.7794284 -0.900960E-06  0.609E-03    0.47       6.7  T
   9    -11.7794284 -0.268753E-07  0.189E-03    0.48      21.6  T
  10    -11.7794284 -0.634468E-08  0.124E-03    0.48      32.9  T
  11    -11.7794284 -0.240940E-08  0.451E-04    0.48      90.5  T
  12    -11.7794284 -0.437492E-09  0.125E-04    0.48     326.7  T
     SCC iter.                  ...        0 min,  0.002 sec
     gradient                   ...        0 min,  0.001 sec
 * total energy  :   -11.7332153 Eh     change       -0.4469708E-03 Eh
   gradient norm :     0.0118156 Eh/α   predicted    -0.3016927E-03 ( -32.50%)
   displ. norm   :     0.1484896 α      lambda       -0.9583641E-03
   maximum displ.:     0.0696037 α      in ANC's #9, #8, #12, ...

........................................................................
.............................. CYCLE   17 ..............................
........................................................................

 iter      E             dE          RMSdq      gap      omega  full diag
   1    -11.7757204 -0.117757E+02  0.138E+00    0.28       0.0  T
   2    -11.7758688 -0.148458E-03  0.139E+00    0.66       1.0  T
   3    -11.7786729 -0.280411E-02  0.170E-01    0.47       1.0  T
   4    -11.7786597  0.132584E-04  0.206E-01    0.44       1.0  T
   5    -11.7786883 -0.285867E-04  0.118E-01    0.45       1.0  T
   6    -11.7786970 -0.870929E-05  0.689E-02    0.46       1.0  T
   7    -11.7787002 -0.316862E-05  0.441E-02    0.46       1.0  T
   8    -11.7787030 -0.287964E-05  0.131E-02    0.46       3.1  T
   9    -11.7787032 -0.123025E-06  0.761E-03    0.46       5.4  T
  10    -11.7787032 -0.158758E-07  0.435E-03    0.46       9.4  T
  11    -11.7787032 -0.166292E-07  0.181E-03    0.46      22.5  T
  12    -11.7787032 -0.720155E-08  0.518E-04    0.46      78.8  T
  13    -11.7787032 -0.363691E-09  0.341E-04    0.46     119.8  T
     SCC iter.                  ...        0 min,  0.002 sec
     gradient                   ...        0 min,  0.001 sec
 * total energy  :   -11.7339788 Eh     change       -0.7635035E-03 Eh
   gradient norm :     0.0128791 Eh/α   predicted    -0.4897484E-03 ( -35.86%)
   displ. norm   :     0.2739198 α      lambda       -0.1669033E-02
   maximum displ.:     0.1355224 α      in ANC's #4, #9, #5, ...

........................................................................
.............................. CYCLE   18 ..............................
........................................................................

 iter      E             dE          RMSdq      gap      omega  full diag
   1    -11.7337145 -0.117337E+02  0.331E+00    0.09       0.0  T
   2    -11.6834076  0.503069E-01  0.575E+00    0.74       1.0  T
   3    -11.7708238 -0.874162E-01  0.142E+00    0.74       1.0  T
   4    -11.7807092 -0.988536E-02  0.121E+00    0.46       1.0  T
   5    -11.7808236 -0.114415E-03  0.108E+00    0.46       1.0  T
   6    -11.7809617 -0.138086E-03  0.588E-01    0.42       1.0  T
   7    -11.7810569 -0.952241E-04  0.245E-01    0.37       1.0  T
   8    -11.7810610 -0.413381E-05  0.129E-01    0.37       1.0  T
   9    -11.7810752 -0.141400E-04  0.152E-01    0.36       1.0  T
  10    -11.7810727  0.244840E-05  0.218E-01    0.37       1.0  T
  11    -11.7810798 -0.709501E-05  0.119E-01    0.37       1.0  T
  12    -11.7810817 -0.187746E-05  0.417E-02    0.37       1.0  T
  13    -11.7810819 -0.246473E-06  0.305E-03    0.37      13.4  T
  14    -11.7810819  0.212880E-08  0.615E-03    0.37       6.6  T
  15    -11.7810819 -0.127956E-07  0.313E-03    0.37      13.1  T
  16    -11.7810819 -0.497956E-08  0.483E-04    0.37      84.6  T
  17    -11.7810819 -0.309582E-09  0.177E-04    0.37     230.6  T
     SCC iter.                  ...        0 min,  0.002 sec
     gradient                   ...        0 min,  0.001 sec
 * total energy  :   -11.7347093 Eh     change       -0.7304835E-03 Eh
   gradient norm :     0.0110590 Eh/α   predicted    -0.8971271E-03 (  22.81%)
   displ. norm   :     0.1273476 α      lambda       -0.9146840E-03
   maximum displ.:     0.0605077 α      in ANC's #2, #8, #3, ...

........................................................................
.............................. CYCLE   19 ..............................
........................................................................

 iter      E             dE          RMSdq      gap      omega  full diag
   1    -11.7797479 -0.117797E+02  0.902E-01    0.51       0.0  T
   2    -11.7789829  0.764994E-03  0.109E+00    0.31       1.0  T
   3    -11.7809042 -0.192128E-02  0.154E-01    0.42       1.0  T
   4    -11.7809229 -0.186683E-04  0.722E-02    0.42       1.0  T
   5    -11.7809250 -0.213030E-05  0.442E-02    0.42       1.0  T
   6    -11.7809268 -0.176642E-05  0.233E-02    0.41       1.8  T
   7    -11.7809269 -0.648954E-07  0.248E-02    0.42       1.6  T
   8    -11.7809276 -0.780159E-06  0.486E-03    0.41       8.4  T
   9    -11.7809277 -0.188696E-07  0.449E-03    0.41       9.1  T
  10    -11.7809277 -0.102025E-07  0.197E-03    0.41      20.8  T
  11    -11.7809277 -0.150079E-08  0.115E-03    0.41      35.5  T
  12    -11.7809277 -0.336369E-09  0.188E-04    0.41     216.7  T
  13    -11.7809277 -0.381011E-10  0.154E-04    0.41     265.2  T
     SCC iter.                  ...        0 min,  0.002 sec
     gradient                   ...        0 min,  0.001 sec
 * total energy  :   -11.7351527 Eh     change       -0.4434173E-03 Eh
   gradient norm :     0.0099399 Eh/α   predicted    -0.4647603E-03 (   4.81%)
   displ. norm   :     0.1197261 α      lambda       -0.4939841E-03
   maximum displ.:     0.0619369 α      in ANC's #2, #1, #5, ...

........................................................................
.............................. CYCLE   20 ..............................
........................................................................

 iter      E             dE          RMSdq      gap      omega  full diag
   1    -11.7814782 -0.117815E+02  0.100E+00    0.33       0.0  T
   2    -11.7809682  0.510044E-03  0.884E-01    0.46       1.0  T
   3    -11.7818927 -0.924499E-03  0.295E-01    0.36       1.0  T
   4    -11.7820224 -0.129774E-03  0.730E-02    0.38       1.0  T
   5    -11.7820214  0.100493E-05  0.510E-02    0.38       1.0  T
   6    -11.7820240 -0.254518E-05  0.254E-02    0.38       1.6  T
   7    -11.7820240  0.196484E-07  0.336E-02    0.38       1.2  T
   8    -11.7820248 -0.826879E-06  0.166E-02    0.38       2.5  T
   9    -11.7820250 -0.186945E-06  0.662E-03    0.38       6.2  T
  10    -11.7820250 -0.385272E-07  0.262E-03    0.38      15.6  T
  11    -11.7820250 -0.566178E-08  0.223E-03    0.38      18.3  T
  12    -11.7820250 -0.136240E-08  0.494E-04    0.38      82.7  T
  13    -11.7820250 -0.262428E-09  0.185E-04    0.38     220.6  T
     SCC iter.                  ...        0 min,  0.002 sec
     gradient                   ...        0 min,  0.001 sec
 * total energy  :   -11.7355266 Eh     change       -0.3738941E-03 Eh
   gradient norm :     0.0081732 Eh/α   predicted    -0.2505331E-03 ( -32.99%)
   displ. norm   :     0.1827913 α      lambda       -0.4975452E-03
   maximum displ.:     0.1008351 α      in ANC's #2, #1, #3, ...
 * RMSD in coord.:     1.3118634 α      energy gain  -0.6585017E-01 Eh

generating ANC from model Hessian ...
Using Lindh-Hessian (1995)
 Shifting diagonal of input Hessian by   8.927012605325592E-003
 Lowest  eigenvalues of input Hessian
    0.000000    0.000000    0.000000    0.000000    0.000000    0.000000
    0.010000    0.012251    0.044243    0.061905    0.072347    0.112600
    0.125636    0.157922    0.419631    0.727627    1.116103    1.483405
 Highest eigenvalues
    0.125636    0.157922    0.419631    0.727627    1.116103    1.483405
 

........................................................................
.............................. CYCLE   21 ..............................
........................................................................

 iter      E             dE          RMSdq      gap      omega  full diag
   1    -11.7807967 -0.117808E+02  0.180E+00    0.27       0.0  T
   2    -11.7788483  0.194839E-02  0.163E+00    0.46       1.0  T
   3    -11.7816361 -0.278777E-02  0.676E-01    0.28       1.0  T
   4    -11.7823306 -0.694514E-03  0.158E-01    0.33       1.0  T
   5    -11.7822979  0.327409E-04  0.182E-01    0.31       1.0  T
   6    -11.7823375 -0.396959E-04  0.420E-02    0.32       1.0  T
   7    -11.7823398 -0.223142E-05  0.301E-02    0.33       1.4  T
   8    -11.7823409 -0.110827E-05  0.227E-02    0.33       1.8  T
   9    -11.7823409 -0.386847E-07  0.179E-02    0.33       2.3  T
  10    -11.7823412 -0.258737E-06  0.151E-02    0.33       2.7  T
  11    -11.7823413 -0.750392E-07  0.481E-03    0.33       8.5  T
  12    -11.7823413  0.836643E-09  0.837E-03    0.33       4.9  T
  13    -11.7823413 -0.156063E-07  0.146E-03    0.33      28.0  T
  14    -11.7823413 -0.471605E-09  0.174E-04    0.33     234.4  T
  15    -11.7823413 -0.252349E-10  0.249E-04    0.33     164.3  T
     SCC iter.                  ...        0 min,  0.002 sec
     gradient                   ...        0 min,  0.001 sec
 * total energy  :   -11.7358356 Eh     change       -0.3090494E-03 Eh
   gradient norm :     0.0059424 Eh/α   predicted     0.0000000E+00 (-100.00%)
   displ. norm   :     0.1344164 α      lambda       -0.3960849E-03
   maximum displ.:     0.1242783 α      in ANC's #2, #6, #3, ...

........................................................................
.............................. CYCLE   22 ..............................
........................................................................

 iter      E             dE          RMSdq      gap      omega  full diag
   1    -11.7823409 -0.117823E+02  0.111E+00    0.37       0.0  T
   2    -11.7825277 -0.186882E-03  0.336E-01    0.36       1.0  T
   3    -11.7825458 -0.180329E-04  0.963E-02    0.35       1.0  T
   4    -11.7825444  0.136790E-05  0.606E-02    0.36       1.0  T
   5    -11.7825489 -0.452316E-05  0.266E-02    0.35       1.5  T
   6    -11.7825488  0.172050E-06  0.334E-02    0.35       1.2  T
   7    -11.7825495 -0.708980E-06  0.102E-02    0.35       4.0  T
   8    -11.7825497 -0.209580E-06  0.586E-03    0.35       7.0  T
   9    -11.7825497 -0.261497E-07  0.283E-03    0.35      14.4  T
  10    -11.7825497 -0.962173E-08  0.213E-03    0.35      19.2  T
  11    -11.7825497 -0.284759E-08  0.110E-03    0.35      37.0  T
  12    -11.7825497 -0.438519E-09  0.346E-04    0.35     118.0  T
  13    -11.7825497 -0.123295E-09  0.206E-04    0.35     198.5  T
     SCC iter.                  ...        0 min,  0.002 sec
     gradient                   ...        0 min,  0.001 sec
 * total energy  :   -11.7361287 Eh     change       -0.2930213E-03 Eh
   gradient norm :     0.0030458 Eh/α   predicted    -0.2016188E-03 ( -31.19%)
   displ. norm   :     0.1351920 α      lambda       -0.1976113E-03
   maximum displ.:     0.1280217 α      in ANC's #2, #3, #6, ...

........................................................................
.............................. CYCLE   23 ..............................
........................................................................

 iter      E             dE          RMSdq      gap      omega  full diag
   1    -11.7821657 -0.117822E+02  0.110E+00    0.39       0.0  T
   2    -11.7823635 -0.197729E-03  0.298E-01    0.37       1.0  T
   3    -11.7823785 -0.150436E-04  0.631E-02    0.37       1.0  T
   4    -11.7823732  0.536230E-05  0.931E-02    0.36       1.0  T
   5    -11.7823825 -0.929915E-05  0.283E-02    0.36       1.4  T
   6    -11.7823825 -0.964735E-07  0.289E-02    0.37       1.4  T
   7    -11.7823825  0.339523E-07  0.178E-02    0.37       2.3  T
   8    -11.7823830 -0.491370E-06  0.410E-03    0.37      10.0  T
   9    -11.7823830 -0.137432E-07  0.209E-03    0.37      19.5  T
  10    -11.7823830 -0.568109E-08  0.184E-03    0.37      22.2  T
  11    -11.7823830 -0.157231E-08  0.938E-04    0.37      43.5  T
  12    -11.7823830 -0.262579E-09  0.240E-04    0.37     170.3  T
     SCC iter.                  ...        0 min,  0.002 sec
     gradient                   ...        0 min,  0.001 sec
 * total energy  :   -11.7362569 Eh     change       -0.1282133E-03 Eh
   gradient norm :     0.0029522 Eh/α   predicted    -0.1006096E-03 ( -21.53%)
   displ. norm   :     0.0572000 α      lambda       -0.3627789E-04
   maximum displ.:     0.0543473 α      in ANC's #2, #5, #6, ...

........................................................................
.............................. CYCLE   24 ..............................
........................................................................

 iter      E             dE          RMSdq      gap      omega  full diag
   1    -11.7822983 -0.117823E+02  0.472E-01    0.38       0.0  T
   2    -11.7823293 -0.310062E-04  0.152E-01    0.36       1.0  T
   3    -11.7823331 -0.381698E-05  0.837E-02    0.38       1.0  T
   4    -11.7823456 -0.124489E-04  0.259E-02    0.37       1.6  T
   5    -11.7823459 -0.352602E-06  0.103E-02    0.37       4.0  T
   6    -11.7823460 -0.122093E-06  0.875E-03    0.37       4.7  T
   7    -11.7823460  0.300625E-07  0.688E-03    0.37       5.9  T
   8    -11.7823461 -0.649833E-07  0.102E-03    0.37      40.2  T
   9    -11.7823461 -0.652944E-09  0.508E-04    0.37      80.4  T
  10    -11.7823461 -0.264084E-09  0.326E-04    0.37     125.4  T
     SCC iter.                  ...        0 min,  0.001 sec
     gradient                   ...        0 min,  0.001 sec
 * total energy  :   -11.7362815 Eh     change       -0.2464290E-04 Eh
   gradient norm :     0.0024122 Eh/α   predicted    -0.1819745E-04 ( -26.16%)
   displ. norm   :     0.0284652 α      lambda       -0.1300378E-04
   maximum displ.:     0.0260746 α      in ANC's #2, #5, #6, ...

........................................................................
.............................. CYCLE   25 ..............................
........................................................................

 iter      E             dE          RMSdq      gap      omega  full diag
   1    -11.7823633 -0.117824E+02  0.237E-01    0.39       0.0  T
   2    -11.7823615  0.180721E-05  0.125E-01    0.36       1.0  T
   3    -11.7823720 -0.105547E-04  0.830E-02    0.38       1.0  T
   4    -11.7823836 -0.115850E-04  0.127E-02    0.38       3.2  T
   5    -11.7823837 -0.366409E-07  0.684E-03    0.37       6.0  T
   6    -11.7823837 -0.792079E-07  0.356E-03    0.38      11.5  T
   7    -11.7823837  0.577510E-08  0.328E-03    0.38      12.4  T
   8    -11.7823838 -0.123955E-07  0.567E-04    0.38      72.0  T
   9    -11.7823838 -0.163157E-09  0.432E-04    0.37      94.5  T
     SCC iter.                  ...        0 min,  0.001 sec
     gradient                   ...        0 min,  0.001 sec
 * total energy  :   -11.7362900 Eh     change       -0.8516932E-05 Eh
   gradient norm :     0.0014956 Eh/α   predicted    -0.6505455E-05 ( -23.62%)
   displ. norm   :     0.0100855 α      lambda       -0.5381442E-05
   maximum displ.:     0.0047151 α      in ANC's #10, #3, #6, ...

........................................................................
.............................. CYCLE   26 ..............................
........................................................................

 iter      E             dE          RMSdq      gap      omega  full diag
   1    -11.7824215 -0.117824E+02  0.112E-01    0.39       0.0  T
   2    -11.7824024  0.191311E-04  0.154E-01    0.37       1.0  T
   3    -11.7824407 -0.383375E-04  0.137E-02    0.38       3.0  T
   4    -11.7824409 -0.123301E-06  0.988E-03    0.38       4.1  T
   5    -11.7824409 -0.195106E-07  0.589E-03    0.38       6.9  T
   6    -11.7824409 -0.489026E-07  0.339E-03    0.38      12.0  T
   7    -11.7824409 -0.483761E-08  0.288E-03    0.38      14.2  T
   8    -11.7824410 -0.951075E-08  0.476E-04    0.38      85.8  T
   9    -11.7824410 -0.217677E-09  0.328E-04    0.38     124.3  T
     SCC iter.                  ...        0 min,  0.001 sec
     gradient                   ...        0 min,  0.001 sec
 * total energy  :   -11.7362949 Eh     change       -0.4871301E-05 Eh
   gradient norm :     0.0006367 Eh/α   predicted    -0.2692051E-05 ( -44.74%)
   displ. norm   :     0.0166949 α      lambda       -0.2672023E-05
   maximum displ.:     0.0160847 α      in ANC's #2, #9, #10, ...

........................................................................
.............................. CYCLE   27 ..............................
........................................................................

 iter      E             dE          RMSdq      gap      omega  full diag
   1    -11.7823909 -0.117824E+02  0.146E-01    0.39       0.0  T
   2    -11.7823882  0.272267E-05  0.910E-02    0.38       1.0  T
   3    -11.7823955 -0.734708E-05  0.450E-02    0.39       1.0  T
   4    -11.7823988 -0.327111E-05  0.794E-03    0.39       5.1  T
   5    -11.7823988  0.358727E-08  0.496E-03    0.39       8.2  T
   6    -11.7823988 -0.369933E-07  0.315E-03    0.39      12.9  T
   7    -11.7823989 -0.611131E-08  0.238E-03    0.39      17.2  T
   8    -11.7823989 -0.693225E-08  0.771E-04    0.39      53.0  T
   9    -11.7823989 -0.579659E-09  0.536E-04    0.39      76.2  T
     SCC iter.                  ...        0 min,  0.001 sec
     gradient                   ...        0 min,  0.001 sec
 * total energy  :   -11.7362976 Eh     change       -0.2685367E-05 Eh
   gradient norm :     0.0004745 Eh/α   predicted    -0.1336364E-05 ( -50.24%)
   displ. norm   :     0.0083104 α      lambda       -0.8037737E-06
   maximum displ.:     0.0076490 α      in ANC's #2, #9, #10, ...

........................................................................
.............................. CYCLE   28 ..............................
........................................................................

 iter      E             dE          RMSdq      gap      omega  full diag
   1    -11.7823204 -0.117823E+02  0.716E-02    0.39       0.0  T
   2    -11.7823196  0.802985E-06  0.471E-02    0.39       1.0  T
   3    -11.7823219 -0.223921E-05  0.226E-02    0.39       1.8  T
   4    -11.7823226 -0.767215E-06  0.518E-03    0.39       7.9  T
   5    -11.7823226 -0.114854E-08  0.318E-03    0.39      12.8  T
   6    -11.7823226 -0.171517E-07  0.216E-03    0.39      18.9  T
   7    -11.7823226 -0.540416E-08  0.170E-03    0.39      24.1  T
   8    -11.7823226 -0.386814E-08  0.428E-04    0.39      95.5  T
   9    -11.7823226 -0.155628E-09  0.304E-04    0.39     134.1  T
     SCC iter.                  ...        0 min,  0.001 sec
     gradient                   ...        0 min,  0.001 sec
 * total energy  :   -11.7362983 Eh     change       -0.7148223E-06 Eh
   gradient norm :     0.0002460 Eh/α   predicted    -0.4002466E-06 ( -44.01%)
   displ. norm   :     0.0018824 α      lambda       -0.8080832E-07
   maximum displ.:     0.0016600 α      in ANC's #2, #9, #3, ...

   *** GEOMETRY OPTIMIZATION CONVERGED AFTER 28 ITERATIONS ***

------------------------------------------------------------------------
 total energy gain   :        -0.0666219 Eh      -41.8059 kcal/mol
 total RMSD          :         1.4158382 a0        0.7492 Å
 total power (kW/mol):        -6.2469910 (step)-1597.6382 (real)
------------------------------------------------------------------------

 ANCopt (total)                0 d,  0 h,  0 min,  0.109 sec
 optimizer setup                ...        0 min,  0.003 sec (  2.380%)
 model hessian                  ...        0 min,  0.004 sec (  3.318%)
 ANC generation                 ...        0 min,  0.000 sec (  0.206%)
 coordinate transformation      ...        0 min,  0.000 sec (  0.168%)
 single point calculation       ...        0 min,  0.092 sec ( 83.766%)
 optimization log               ...        0 min,  0.004 sec (  4.058%)
 hessian update                 ...        0 min,  0.000 sec (  0.305%)
 rational function              ...        0 min,  0.003 sec (  3.068%)

================
 final structure:
================
6
 xtb: 6.6.1 (8d0f1dd)
C           -0.13727932850334       -0.03817416479537        1.45999476695352
H            0.08712365112102        0.87815476192427        2.01876262747555
H           -1.38912972982133       -0.00156145099813        1.46055605060753
H            0.03288980487081       -0.97349130839727        2.00631559656738
Br          -3.13248072534782        0.04782930704643        1.66503939263476
Cl           0.39083620768067       -0.04281889477994       -0.12817422423878
 
 Bond Distances (Angstroems)
 ---------------------------
C1-H2=1.0965         C1-H3=1.2524         C1-H4=1.0965         C1-Cl6=1.6737        H2-C1=1.0965         H3-C1=1.2524         
H3-Br5=1.7560        H4-C1=1.0965         Br5-H3=1.7560        Cl6-C1=1.6737        
 C  H  Rav=1.1484 sigma=0.0735  Rmin=1.0965  Rmax=1.2524     3
 Cl C  Rav=1.6737 sigma=0.0000  Rmin=1.6737  Rmax=1.6737     1
 Br H  Rav=1.7560 sigma=0.0000  Rmin=1.7560  Rmax=1.7560     1
 
 selected bond angles (degree)
 --------------------
H3-C1-H2=100.36                H4-C1-H2=115.29                H4-C1-H3=100.36                Cl6-C1-H2=114.92               
Cl6-C1-H3=108.42               Cl6-C1-H4=114.93               Br5-H3-C1=173.34               
 
 selected dihedral angles (degree)
 ---------------------------------
Br5-H3-C1-H2=300.76           Br5-H3-C1-H4= 59.11           Br5-H3-C1-Cl6=179.94          
           -------------------------------------------------
          |                Final Singlepoint                |
           -------------------------------------------------

          ...................................................
          :                      SETUP                      :
          :.................................................:
          :  # basis functions                  27          :
          :  # atomic orbitals                  25          :
          :  # shells                           11          :
          :  # electrons                        20          :
          :  max. iterations                   250          :
          :  Hamiltonian                  GFN2-xTB          :
          :  restarted?                      false          :
          :  GBSA solvation                  false          :
          :  PC potential                    false          :
          :  electronic temp.          300.0000000     K    :
          :  accuracy                    1.0000000          :
          :  -> integral cutoff          0.2500000E+02      :
          :  -> integral neglect         0.1000000E-07      :
          :  -> SCF convergence          0.1000000E-05 Eh   :
          :  -> wf. convergence          0.1000000E-03 e    :
          :  Broyden damping             0.4000000          :
          ...................................................

 iter      E             dE          RMSdq      gap      omega  full diag
   1    -11.7823226 -0.117823E+02  0.111E-04    0.39       0.0  T
   2    -11.7823226  0.665068E-11  0.847E-05    0.39     481.9  T
   3    -11.7823226 -0.128040E-10  0.577E-05    0.39     707.1  T

   *** convergence criteria satisfied after 3 iterations ***

         #    Occupation            Energy/Eh            Energy/eV
      -------------------------------------------------------------
         1        2.0000           -1.2894770             -35.0885
       ...           ...                  ...                  ...
         4        2.0000           -0.7790660             -21.1995
         5        2.0000           -0.7766615             -21.1340
         6        2.0000           -0.7714872             -20.9932
         7        2.0000           -0.6888288             -18.7440
         8        2.0000           -0.6689050             -18.2018
         9        1.9994           -0.6352557             -17.2862
        10        1.9992           -0.6349695             -17.2784 (HOMO)
        11        0.0014           -0.6206715             -16.8893 (LUMO)
        12                         -0.3713210             -10.1042
        13                         -0.2948104              -8.0222
        14                         -0.2451318              -6.6704
        15                         -0.2382237              -6.4824
       ...                                ...                  ...
        25                          0.2270795               6.1791
      -------------------------------------------------------------
                  HL-Gap            0.0142980 Eh            0.3891 eV
             Fermi-level           -0.6275573 Eh          -17.0767 eV

 SCC (total)                   0 d,  0 h,  0 min,  0.002 sec
 SCC setup                      ...        0 min,  0.000 sec (  4.436%)
 Dispersion                     ...        0 min,  0.000 sec (  0.896%)
 classical contributions        ...        0 min,  0.000 sec (  0.586%)
 integral evaluation            ...        0 min,  0.001 sec ( 24.419%)
 iterations                     ...        0 min,  0.001 sec ( 30.049%)
 molecular gradient             ...        0 min,  0.001 sec ( 34.474%)
 printout                       ...        0 min,  0.000 sec (  3.807%)

         :::::::::::::::::::::::::::::::::::::::::::::::::::::
         ::                     SUMMARY                     ::
         :::::::::::::::::::::::::::::::::::::::::::::::::::::
         :: total energy             -11.736298311305 Eh    ::
         :: gradient norm              0.000247944781 Eh/a0 ::
         :: HOMO-LUMO gap              0.389068563859 eV    ::
         ::.................................................::
         :: SCC energy               -11.782322645602 Eh    ::
         :: -> isotropic ES            0.125688992246 Eh    ::
         :: -> anisotropic ES         -0.017440292218 Eh    ::
         :: -> anisotropic XC          0.000833159043 Eh    ::
         :: -> dispersion             -0.002369696814 Eh    ::
         :: repulsion energy           0.046023852941 Eh    ::
         :: add. restraining           0.000000000000 Eh    ::
         :: total charge               1.000000000342 e     ::
         :::::::::::::::::::::::::::::::::::::::::::::::::::::

           -------------------------------------------------
          |                Property Printout                |
           -------------------------------------------------

    * Orbital Energies and Occupations

         #    Occupation            Energy/Eh            Energy/eV
      -------------------------------------------------------------
         1        2.0000           -1.2894770             -35.0885
         2        2.0000           -1.0406652             -28.3179
         3        2.0000           -0.8776125             -23.8811
         4        2.0000           -0.7790660             -21.1995
         5        2.0000           -0.7766615             -21.1340
         6        2.0000           -0.7714872             -20.9932
         7        2.0000           -0.6888288             -18.7440
         8        2.0000           -0.6689050             -18.2018
         9        1.9994           -0.6352557             -17.2862
        10        1.9992           -0.6349695             -17.2784 (HOMO)
        11        0.0014           -0.6206715             -16.8893 (LUMO)
        12                         -0.3713210             -10.1042
        13                         -0.2948104              -8.0222
        14                         -0.2451318              -6.6704
        15                         -0.2382237              -6.4824
        16                         -0.2377316              -6.4690
        17                         -0.2242916              -6.1033
        18                         -0.1927803              -5.2458
        19                         -0.1922364              -5.2310
        20                         -0.1626027              -4.4246
        21                         -0.1625692              -4.4237
       ...                                ...                  ...
        25                          0.2270795               6.1791
      -------------------------------------------------------------
                  HL-Gap            0.0142980 Eh            0.3891 eV
             Fermi-level           -0.6275573 Eh          -17.0767 eV

     #   Z          covCN         q      C6AA      α(0)
     1   6 C        3.599    -0.033    21.769     6.751
     2   1 H        0.924     0.211     1.046     1.599
     3   1 H        1.582     0.292     0.728     1.332
     4   1 H        0.924     0.211     1.046     1.599
     5  35 Br       0.762     0.059   182.832    21.799
     6  17 Cl       0.893     0.260    91.701    14.650

 Mol. C6AA /au·bohr⁶  :        938.682680
 Mol. C8AA /au·bohr⁸  :      41778.783010
 Mol. α(0) /au        :         47.731114


Wiberg/Mayer (AO) data.
largest (>0.10) Wiberg bond orders for each atom

 ---------------------------------------------------------------------------
     #   Z sym  total        # sym  WBO       # sym  WBO       # sym  WBO
 ---------------------------------------------------------------------------
     1   6 C    3.853 --     6 Cl   1.316     2 H    0.923     4 H    0.923
                             3 H    0.488     5 Br   0.204
     2   1 H    0.956 --     1 C    0.923
     3   1 H    0.915 --     1 C    0.488     5 Br   0.419
     4   1 H    0.956 --     1 C    0.923
     5  35 Br   1.018 --     3 H    0.419     6 Cl   0.364     1 C    0.204
     6  17 Cl   1.707 --     1 C    1.316     5 Br   0.364
 ---------------------------------------------------------------------------

Topologies differ in total number of bonds
Writing topology from bond orders to xtbtopo.mol

molecular dipole:
                 x           y           z       tot (Debye)
 q only:       -0.867      -0.052       2.441
   full:       -1.358      -0.035       2.076       6.305
molecular quadrupole (traceless):
                xx          xy          yy          xz          yz          zz
 q only:       -0.755      -0.018      -5.153      -4.584      -0.165       5.908
  q+dip:        7.059      -0.274      -8.547      -8.449      -0.012       1.489
   full:        8.862      -0.370     -10.089      -8.749      -0.012       1.227

           -------------------------------------------------
          |                Geometry Summary                 |
           -------------------------------------------------

      molecular mass/u    :      130.3910235
   center of mass at/Å    :       -1.8357706       0.0134021       1.1623744
  moments of inertia/u·Å² :        0.2088911E+02   0.4168814E+03   0.4343116E+03
rotational constants/cm⁻¹ :        0.8070057E+00   0.4043748E-01   0.3881460E-01

 * 3 selected distances

     #   Z          #   Z                                           value/Å
     1   6 C        2   1 H                                       1.0964658 (min)
     1   6 C        4   1 H                                       1.0964681
     1   6 C        6  17 Cl                                      1.6736812 (max)

 * 2 distinct bonds (by element types)

   Z      Z             #   av. dist./Å        max./Å        min./Å
   1 H    6 C           2     1.0964669     1.0964681     1.0964658
   6 C   17 Cl          1     1.6736812     1.6736812     1.6736812


optimized geometry written to: xtbopt.xyz


           -------------------------------------------------
          | TOTAL ENERGY              -11.736298311305 Eh   |
          | GRADIENT NORM               0.000247944781 Eh/α |
          | HOMO-LUMO GAP               0.389068563859 eV   |
           -------------------------------------------------
########################################################################
[WARNING] Runtime exception occurred
-2- restart_readRestart: Dimension missmatch in restart file.
-1- restart_readRestart: Number of electron missmatch in restart file.
########################################################################

------------------------------------------------------------------------
 * finished run on 2025/10/06 at 17:40:02.129     
------------------------------------------------------------------------
 total:
 * wall-time:     0 d,  0 h,  0 min,  0.242 sec
 *  cpu-time:     0 d,  0 h,  0 min,  0.153 sec
 * ratio c/w:     0.631 speedup
 SCF:
 * wall-time:     0 d,  0 h,  0 min,  0.042 sec
 *  cpu-time:     0 d,  0 h,  0 min,  0.018 sec
 * ratio c/w:     0.437 speedup
 ANC optimizer:
 * wall-time:     0 d,  0 h,  0 min,  0.116 sec
 *  cpu-time:     0 d,  0 h,  0 min,  0.106 sec
 * ratio c/w:     0.917 speedup

