14
 energy: -13.665127753492 gnorm: 0.000041489992 xtb: 6.6.1 (8d0f1dd)
C           -1.93790572000000        0.13365490000000       -0.00001079000000
C           -0.56066878000000       -0.51808649000000        0.00001536000000
C            0.56066959000000        0.51810721000000        0.00001279000000
C            1.93790988000000       -0.13367652000000       -0.00000816000000
H           -2.06419493000000        0.75846742000000       -0.88171931000000
H           -2.06423816000000        0.75858229000000        0.88162915000000
H           -2.72027856000000       -0.62185392000000       -0.00000366000000
H           -0.46086734000000       -1.15568013000000       -0.88161408000000
H           -0.46090884000000       -1.15564130000000        0.88167534000000
H            0.46083431000000        1.15570455000000        0.88163421000000
H            0.46084110000000        1.15566729000000       -0.88163412000000
H            2.06426718000000       -0.75857061000000        0.88166141000000
H            2.72026766000000        0.62186143000000       -0.00002251000000
H            2.06421827000000       -0.75852646000000       -0.88171602000000
