6
 energy: -11.669676421125 gnorm: 0.065739370058 xtb: 6.6.1 (8d0f1dd)
C           -0.73667934000000       -0.01669051000000        1.43096859000000
H           -0.41414821000000        0.86830271000000        1.95932517000000
H           -1.27881827000000       -0.09614583000000        0.50028485000000
H           -0.22002745000000       -0.90073905000000        1.77437652000000
Br          -2.42728159000000        0.13120202000000        2.48926525000000
Cl           0.92891474000000       -0.11599109000000        0.32827383000000
6
 energy: -11.683570472196 gnorm: 0.035533699748 xtb: 6.6.1 (8d0f1dd)
C           -0.70754085552250       -0.01806170073027        1.43238922699172
H           -0.33067332452128        0.90753570761847        1.89081865900652
H           -1.26029770805204       -0.08199030803916        0.48831233696667
H           -0.32550201523442       -0.96234107019092        1.86536348968585
Br          -2.48297198833814        0.08194611588492        2.52291667914369
Cl           0.95894577166838       -0.05715049454304        0.28269381820554
6
 energy: -11.688402658456 gnorm: 0.030074483095 xtb: 6.6.1 (8d0f1dd)
C           -0.66046978672305       -0.04553850961093        1.45862778486463
H           -0.29827517336959        0.89662758883333        1.89949378519592
H           -1.23627620728639       -0.08866221006793        0.51620109419026
H           -0.33647218981505       -0.99904269314808        1.92564157725299
Br          -2.55565933443314        0.10865257323729        2.48653016164596
Cl           0.93911257162722       -0.00209849924367        0.19599980685024
6
 energy: -11.692720852247 gnorm: 0.043969215315 xtb: 6.6.1 (8d0f1dd)
C           -0.54233432288779       -0.10020046979930        1.53752000180379
H           -0.22516525957917        0.85918465564167        1.96890074993340
H           -1.17150232364719       -0.10987512537479        0.59934321726300
H           -0.32124478595785       -1.05033447889265        2.05677933139860
Br          -2.72926366277943        0.17330375591949        2.34757411683951
Cl           0.84147023485143        0.09785991250559       -0.02762320723829
6
 energy: -11.697085877260 gnorm: 0.035525224490 xtb: 6.6.1 (8d0f1dd)
C           -0.53535837341812       -0.06591914827759        1.52415390346288
H           -0.22834771195515        0.87848429565618        1.97506571156906
H           -1.17529199133787       -0.08545717928950        0.59653016531137
H           -0.31852303341194       -1.00876862240190        2.04306509652520
Br          -2.70783244859536        0.11808312795937        2.34276258504550
Cl           0.81731343871845        0.03351577635344        0.00091674808598
6
 energy: -11.707438888064 gnorm: 0.028504518229 xtb: 6.6.1 (8d0f1dd)
C           -0.43772471957362       -0.00376145091121        1.51037952983523
H           -0.20191975124426        0.90538097201548        2.02921494042043
H           -1.18762390456874       -0.03846813186560        0.64257740680297
H           -0.27824282510627       -0.92374562353364        2.04893418725677
Br          -2.71548256900730        0.01587171715254        2.23891040779391
Cl           0.67295364950019       -0.08533923285757        0.01247773789068
6
 energy: -11.714226028579 gnorm: 0.035005809500 xtb: 6.6.1 (8d0f1dd)
C           -0.30768736087186        0.03037084369444        1.49598908386632
H           -0.15809251637790        0.91948019225422        2.08875817634177
H           -1.26296380034266       -0.01284506357036        0.74573425487679
H           -0.23015725649608       -0.88368042634488        2.07314283950821
Br          -2.74555533343325       -0.04007729405625        2.08456152045992
Cl           0.55641614752175       -0.14331000197717       -0.00569166505302
6
 energy: -11.722056429268 gnorm: 0.032715474575 xtb: 6.6.1 (8d0f1dd)
C           -0.21456721668769        0.02200900414679        1.49477777811556
H           -0.09742367017945        0.91079186355952        2.10641553082509
H           -1.38402651695797       -0.01299961283645        0.88728207148347
H           -0.17585126631098       -0.89104893562922        2.07738935118166
Br          -2.79257630620629       -0.03349751192861        1.93653404350932
Cl           0.51640485634238       -0.12531655731202       -0.01990456511512
6
 energy: -11.726324114864 gnorm: 0.052284945034 xtb: 6.6.1 (8d0f1dd)
C           -0.10976184930609       -0.02173129286097        1.48666182094036
H           -0.01965246572685        0.88855159400517        2.09222127517756
H           -1.60207263424725       -0.02879969990704        1.11443230172118
H           -0.10919428266824       -0.94905577388611        2.06832545111537
Br          -2.83527377449915        0.02147132984608        1.73764034601604
Cl           0.52791488644757       -0.04049790719713       -0.01678698497051
6
 energy: -11.727276158164 gnorm: 0.052108496948 xtb: 6.6.1 (8d0f1dd)
C           -0.15868721534804       -0.03687678621409        1.52629481857150
H           -0.02672975035278        0.89257533492011        2.07786996682502
H           -1.48535612400651       -0.02126370122367        1.05895696822700
H           -0.12130511376776       -0.96501969436445        2.08786374268436
Br          -2.90081873620986        0.03271404027023        1.81447161424820
Cl           0.54485681968493       -0.03219094338814       -0.08296290055610
6
 energy: -11.728183758444 gnorm: 0.036421742613 xtb: 6.6.1 (8d0f1dd)
C           -0.16161908715633       -0.04300145324255        1.49221173220526
H           -0.03049349748329        0.87459092815647        2.05768231312383
H           -1.48708507317813       -0.04269564958942        1.02790478539808
H           -0.10452296097962       -0.95921396446195        2.03988929943415
Br          -2.88275041356891        0.05885507584980        1.86033057741216
Cl           0.51843091236628       -0.01859668671235        0.00447550242649
6
 energy: -11.730929341759 gnorm: 0.012970025825 xtb: 6.6.1 (8d0f1dd)
C           -0.12839664929753       -0.02978846799300        1.49051886222191
H           -0.03710119969215        0.89166873982462        2.07961894939370
H           -1.51587466388753       -0.02661315982455        1.08257495503462
H           -0.10248859774716       -0.96487607929387        2.05950072268017
Br          -2.89645753660790        0.03943325960565        1.81143663158628
Cl           0.53227852723228       -0.03988604231885       -0.04115591091669
6
 energy: -11.731555860547 gnorm: 0.014866805803 xtb: 6.6.1 (8d0f1dd)
C           -0.11595029063053       -0.04051237495354        1.48838371863078
H           -0.02762860488418        0.88512945737775        2.06861710610959
H           -1.54521765492450       -0.02848496409317        1.12663449583046
H           -0.08241226134463       -0.97734084545284        2.04590980432542
Br          -2.92212655637505        0.05648253779790        1.79325727489168
Cl           0.54529524815889       -0.02533556067610       -0.04030818978794
6
 energy: -11.732100756707 gnorm: 0.011254860305 xtb: 6.6.1 (8d0f1dd)
C           -0.09484712559011       -0.04052500253042        1.47751207645428
H           -0.02501025896419        0.88279081036432        2.06240837070243
H           -1.56093759894107       -0.02532699546101        1.17195107366161
H           -0.06281744311946       -0.98247096125896        2.03054242567704
Br          -2.95425759637373        0.06275243053560        1.78143364302525
Cl           0.54982990298856       -0.02728203164954       -0.04135337952063
6
 energy: -11.732768326694 gnorm: 0.011379932887 xtb: 6.6.1 (8d0f1dd)
C           -0.08015906621087       -0.04920943686767        1.46381325392808
H           -0.02201312732230        0.87345778825008        2.04199549392736
H           -1.56300007461365       -0.02460667644972        1.23401209285402
H           -0.03777776735562       -0.99747225170354        2.00554020393129
Br          -3.01164924421694        0.08423922952793        1.78412334438896
Cl           0.56655915971938       -0.01647040275706       -0.04699017902973
6
 energy: -11.733215297516 gnorm: 0.011899097153 xtb: 6.6.1 (8d0f1dd)
C           -0.07935392699803       -0.04875113140719        1.45183103823622
H           -0.02759438053350        0.87252282472257        2.03295385201760
H           -1.54633616525589       -0.01986698402412        1.27009990783415
H           -0.02820181912277       -1.00074700723571        1.99095895272377
Br          -3.04469264026663        0.08857647328560        1.79368463207057
Cl           0.57813881217683       -0.02179592534115       -0.05703417288233
6
 energy: -11.733978800985 gnorm: 0.012929334581 xtb: 6.6.1 (8d0f1dd)
C           -0.10153467966395       -0.04716472791385        1.43646610691627
H           -0.03433356495625        0.87136433156850        2.01866571382002
H           -1.49651127643427       -0.01472768846934        1.29801036089960
H           -0.03315882701388       -1.00043734333265        1.98029234836830
Br          -3.07179989001000        0.08794167171898        1.81991822640539
Cl           0.58929811807834       -0.02703799357164       -0.07085854640960
6
 energy: -11.734709284458 gnorm: 0.011080560740 xtb: 6.6.1 (8d0f1dd)
C           -0.15700653303120       -0.03933029905349        1.42055502740992
H           -0.03149430043732        0.87382070579356        2.00279812104814
H           -1.38484078935429       -0.00620643356381        1.31688002937013
H           -0.05301969098115       -0.98453376197569        1.97512097895102
Br          -3.09997540159959        0.06960055514786        1.86134365141385
Cl           0.57829659540355       -0.04341251634844       -0.09420359819307
6
 energy: -11.735152701743 gnorm: 0.009958201481 xtb: 6.6.1 (8d0f1dd)
C           -0.13413979398143       -0.04032935737896        1.43389146905720
H           -0.00914237997753        0.87286318918947        2.01496043570080
H           -1.41621571303665       -0.01019117000516        1.31145469680186
H           -0.04465487298223       -0.98175546902105        1.98779485783321
Br          -3.09661238819789        0.06681145530787        1.82655102644048
Cl           0.55272502817574       -0.03746039809218       -0.09215827583357
6
 energy: -11.735526595877 gnorm: 0.008176819888 xtb: 6.6.1 (8d0f1dd)
C           -0.13886817943109       -0.03871470767170        1.44189923674325
H            0.02240501667688        0.87450115857437        2.01826014252132
H           -1.39685305507685       -0.00889430942659        1.32086160171589
H           -0.03858430660435       -0.97337475449929        1.99741344249786
Br          -3.11276692277263        0.05501512405254        1.80479144222367
Cl           0.51662732720804       -0.03859426102934       -0.10073165570200
6
 energy: -11.735835645314 gnorm: 0.005942422849 xtb: 6.6.1 (8d0f1dd)
C           -0.14521261049528       -0.03599795944964        1.44906845393339
H            0.06672077605536        0.87933936389499        2.01751634141699
H           -1.37736225075726       -0.00020420010577        1.35648151625548
H           -0.01719747989753       -0.96690666128479        2.00475046588533
Br          -3.14694939642757        0.03839407570902        1.76793168939330
Cl           0.47196084152228       -0.04468636876380       -0.11325425688451
6
 energy: -11.736128666638 gnorm: 0.003045854977 xtb: 6.6.1 (8d0f1dd)
C           -0.14606689927478       -0.03820396615429        1.45416453426810
H            0.07186731537545        0.87657887142141        2.01757727942788
H           -1.37894156679423        0.00299118404565        1.39634391511891
H            0.00765564530927       -0.97051766212850        2.00731538403124
Br          -3.14249431948803        0.04287312297530        1.72745733012742
Cl           0.43993970487232       -0.04378330015957       -0.12036423297358
6
 energy: -11.736256879903 gnorm: 0.002952260755 xtb: 6.6.1 (8d0f1dd)
C           -0.14361191939307       -0.03814608684176        1.45943277175919
H            0.08107608268153        0.87691422275783        2.01900577366746
H           -1.38062291676081        0.00093716235943        1.43821062053495
H            0.02774434647619       -0.97313951092532        2.00719128431855
Br          -3.14011739673819        0.04695791173270        1.68622940536688
Cl           0.40749168373435       -0.04358544908288       -0.12757564564705
6
 energy: -11.736281522804 gnorm: 0.002412270861 xtb: 6.6.1 (8d0f1dd)
C           -0.14142041885608       -0.03784695970575        1.46142446401250
H            0.08706313820804        0.87768859142342        2.01912991564734
H           -1.38227659850295       -0.00096336522260        1.45645262702158
H            0.03445431476654       -0.97358151466004        2.00618447128905
Br          -3.13996031426335        0.04804382553561        1.66888162958961
Cl           0.39409975864780       -0.04340232737064       -0.12957889756012
6
 energy: -11.736290039735 gnorm: 0.001495632355 xtb: 6.6.1 (8d0f1dd)
C           -0.13959627111481       -0.03795162113902        1.46213729406253
H            0.09011549755204        0.87821305034824        2.01868507712919
H           -1.38394795020396       -0.00209792551452        1.46551680013936
H            0.03704328214083       -0.97371322508588        2.00560934808623
Br          -3.13900067690576        0.04847505128108        1.66033569427780
Cl           0.38734599853166       -0.04298707988991       -0.12979000369513
6
 energy: -11.736294911036 gnorm: 0.000637015811 xtb: 6.6.1 (8d0f1dd)
C           -0.13799096836799       -0.03825179210358        1.46163726005758
H            0.09044033488415        0.87845473071499        2.01815079130363
H           -1.38628359329402       -0.00255012055082        1.46758234224964
H            0.03650586058143       -0.97365557599637        2.00555326774711
Br          -3.13632750776953        0.04846605794245        1.65842209494820
Cl           0.38561575396595       -0.04252505000667       -0.12885154630620
6
 energy: -11.736297596403 gnorm: 0.000474791575 xtb: 6.6.1 (8d0f1dd)
C           -0.13753097316578       -0.03831549575423        1.46048137125248
H            0.08823718869559        0.87825778790620        2.01835646380250
H           -1.38785699027570       -0.00195615276450        1.46276785041924
H            0.03398913401942       -0.97353476779253        2.00608409718291
Br          -3.13396506516918        0.04806430683498        1.66296721717433
Cl           0.38908658589566       -0.04257742842992       -0.12816278983149
6
 energy: -11.736298311226 gnorm: 0.000246097436 xtb: 6.6.1 (8d0f1dd)
C           -0.13727932850334       -0.03817416479537        1.45999476695352
H            0.08712365112102        0.87815476192427        2.01876262747555
H           -1.38912972982133       -0.00156145099813        1.46055605060753
H            0.03288980487081       -0.97349130839727        2.00631559656738
Br          -3.13248072534782        0.04782930704643        1.66503939263476
Cl           0.39083620768067       -0.04281889477994       -0.12817422423878
