14
 energy: -13.663867051384 gnorm: 0.015311387274 xtb: 6.6.1 (8d0f1dd)
C           -1.60526981000000       -0.02841638000000       -0.41532587000000
C           -0.49623139000000       -0.82528656000000        0.25416487000000
C            0.90466651000000       -0.43097654000000       -0.21455198000000
C            1.29277438000000        0.98958702000000        0.16565433000000
H           -1.53910203000000       -0.10199460000000       -1.50540644000000
H           -2.58271275000000       -0.41448582000000       -0.10858410000000
H           -1.56435478000000        1.02848951000000       -0.13614661000000
H           -0.57162565000000       -0.71161365000000        1.34187892000000
H           -0.64989109000000       -1.88869560000000        0.03520308000000
H            1.62873370000000       -1.12202929000000        0.23329671000000
H            0.98221410000000       -0.55127249000000       -1.30140277000000
H            2.33294258000000        1.18272999000000       -0.11591559000000
H            1.19931701000000        1.14710304000000        1.24478356000000
H            0.66853923000000        1.72686137000000       -0.34759184000000
14
 energy: -13.664131998345 gnorm: 0.005255127004 xtb: 6.6.1 (8d0f1dd)
C           -1.60566655756893       -0.02782832608320       -0.41549942840874
C           -0.49565665763175       -0.82744986848178        0.25235760689521
C            0.90531615762241       -0.43257993437243       -0.21225309539699
C            1.29274341506256        0.99031621294224        0.16565651588213
H           -1.53376196753153       -0.10295135850697       -1.49991955301079
H           -2.58122791868549       -0.40735669404392       -0.11210123388373
H           -1.55576779629574        1.02412814064650       -0.14025250373984
H           -0.56215272987195       -0.70296109440823        1.33687131761529
H           -0.64684451370128       -1.88954327356611        0.03590714425801
H            1.62680544300745       -1.12461914863183        0.23304031482714
H            0.96913494783047       -0.54883351830286       -1.29784135580485
H            2.32734268042545        1.18825730625461       -0.11405118785196
H            1.19595073362658        1.14198847589035        1.24008986101226
H            0.66378477371177        1.71943308066363       -0.34194813239312
14
 energy: -13.664163075112 gnorm: 0.000894070375 xtb: 6.6.1 (8d0f1dd)
C           -1.60384215036769       -0.02706181318676       -0.41684012557664
C           -0.49514133990121       -0.82723784892756        0.25533114012825
C            0.90499965254797       -0.43340385652950       -0.21514662702714
C            1.29071753642473        0.99017015079504        0.16691621572773
H           -1.52837991542225       -0.10568289116377       -1.49925524385577
H           -2.57795038883433       -0.40428677161247       -0.11363782922817
H           -1.54929707020447        1.02306462597623       -0.14324276783575
H           -0.55999032844733       -0.69731177327669        1.33843146750678
H           -0.64623298094557       -1.88830754607725        0.04084711042558
H            1.62596655404903       -1.12515589043851        0.22800890203416
H            0.96422542128321       -0.54603378503306       -1.30050336137622
H            2.32278817583480        1.18911477584552       -0.11302746725797
H            1.19321438944823        1.13658309587254        1.24048725640932
H            0.65892245453487        1.71554952775622       -0.33831240007416
14
 energy: -13.664167452974 gnorm: 0.000607551484 xtb: 6.6.1 (8d0f1dd)
C           -1.60384565002601       -0.02750880106256       -0.41826941467900
C           -0.49509796593178       -0.82706847213587        0.25664467697580
C            0.90496554773886       -0.43360189342366       -0.21645640886414
C            1.29087129403424        0.99015513902956        0.16840574300012
H           -1.52663908710702       -0.10991951677727       -1.50037822109574
H           -2.57821556828855       -0.40321583771474       -0.11440813621306
H           -1.54747488397292        1.02316716924050       -0.14701177094739
H           -0.55921005366476       -0.69274707197554        1.33892922025424
H           -0.64720205303865       -1.88850198610708        0.04617292082752
H            1.62726808383793       -1.12598428614746        0.22281658169596
H            0.96098579396842       -0.54303448922008       -1.30198790517919
H            2.32232494880524        1.19028413843839       -0.11254949893164
H            1.19417043185029        1.13252557338060        1.24269224465795
H            0.65709917179472        1.71545033447520       -0.33454376150142
14
 energy: -13.664169799929 gnorm: 0.000418948659 xtb: 6.6.1 (8d0f1dd)
C           -1.60402149970274       -0.02861172033708       -0.41959023948938
C           -0.49500413373379       -0.82619209663796        0.25748084017070
C            0.90444500012554       -0.43316576974514       -0.21746379330884
C            1.29155297711699        0.98970213891523        0.16992955122007
H           -1.52702131065910       -0.11360649042701       -1.50168472173833
H           -2.57859099028064       -0.40363663746251       -0.11478220120641
H           -1.54805701079984        1.02297145648412       -0.15096861933154
H           -0.55881251124668       -0.68894087871017        1.33946963105301
H           -0.64715377423356       -1.88831408974705        0.05007821480345
H            1.62741516353942       -1.12677297331786        0.21898973103132
H            0.95849955459231       -0.54041626956140       -1.30336645989477
H            2.32284511115619        1.19025970442147       -0.11211741480284
H            1.19651741452535        1.13016954032954        1.24478709526631
H            0.65738601960054        1.71655408579584       -0.33070534377273
14
 energy: -13.664171460592 gnorm: 0.000159573975 xtb: 6.6.1 (8d0f1dd)
C           -1.60442677656602       -0.02970464050483       -0.42052509713004
C           -0.49505053246785       -0.82526216602797        0.25776789553774
C            0.90396577925107       -0.43247898418767       -0.21796175767444
C            1.29244427535597        0.98930011676634        0.17105942846780
H           -1.52778749670057       -0.11673616799309       -1.50246041947472
H           -2.57892400308714       -0.40436170982231       -0.11483389303113
H           -1.54896568915429        1.02254478669778       -0.15425745261332
H           -0.55889003754503       -0.68583326764424        1.33950230120899
H           -0.64681525280051       -1.88796678351491        0.05270333982023
H            1.62713757770038       -1.12730774285620        0.21638908704173
H            0.95676519635873       -0.53795079279433       -1.30412618278854
H            2.32353142550642        1.18989807744173       -0.11192403332405
H            1.19889337853762        1.12834800789290        1.24620871855947
H            0.65812216561121        1.71751126654679       -0.32748566459970
14
 energy: -13.664172565508 gnorm: 0.000130664522 xtb: 6.6.1 (8d0f1dd)
C           -1.60486309498522       -0.03050003557865       -0.42137533077528
C           -0.49516804606659       -0.82449551688774        0.25795749274982
C            0.90363148390944       -0.43185594944561       -0.21833264507492
C            1.29319486884883        0.98912887409466        0.17203576573076
H           -1.52880160457387       -0.11944463270665       -1.50316600596049
H           -2.57911099863668       -0.40479409337110       -0.11460303012431
H           -1.54961194546925        1.02225025469000       -0.15718206449580
H           -0.55892662838691       -0.68373048967799        1.33955710987429
H           -0.64634640713774       -1.88755745923160        0.05431734078264
H            1.62664190240389       -1.12763453373799        0.21476434141270
H            0.95558121371634       -0.53629928837022       -1.30467076025821
H            2.32395105114078        1.18961488525944       -0.11206163741773
H            1.20123193390449        1.12698294508332        1.24744574711403
H            0.65859628133248        1.71833503988015       -0.32463005355749
14
 energy: -13.664173451029 gnorm: 0.000145396764 xtb: 6.6.1 (8d0f1dd)
C           -1.60531390918748       -0.03112078357454       -0.42207677720980
C           -0.49532986506359       -0.82397677717237        0.25799188993789
C            0.90346499681140       -0.43136489583982       -0.21849876116177
C            1.29386731809873        0.98906793671381        0.17282613144572
H           -1.52985369294153       -0.12209519348708       -1.50373603721924
H           -2.57941994318493       -0.40479328434897       -0.11408527226326
H           -1.54983570986620        1.02212790376993       -0.15993579339915
H           -0.55923487243308       -0.68222385116726        1.33945730461669
H           -0.64615082993224       -1.88727627721820        0.05532040034731
H            1.62639607691912       -1.12776122338101        0.21374114216299
H            0.95495128894063       -0.53492032111127       -1.30494738819626
H            2.32424045275199        1.18967414127590       -0.11258731555867
H            1.20357803419596        1.12565363268933        1.24853498489708
H            0.65864066489123        1.71900899285155       -0.32194823839953
