      -----------------------------------------------------------      
     |                   =====================                   |     
     |                           x T B                           |     
     |                   =====================                   |     
     |                         S. Grimme                         |     
     |          Mulliken Center for Theoretical Chemistry        |     
     |                    University of Bonn                     |     
      -----------------------------------------------------------      

   * xtb version 6.6.1 (8d0f1dd) compiled by 'stahn@M-Bot' on 2023-08-01

   xtb is free software: you can redistribute it and/or modify it under
   the terms of the GNU Lesser General Public License as published by
   the Free Software Foundation, either version 3 of the License, or
   (at your option) any later version.
   
   xtb is distributed in the hope that it will be useful,
   but WITHOUT ANY WARRANTY; without even the implied warranty of
   MERCHANTABILITY or FITNESS FOR A PARTICULAR PURPOSE.  See the
   GNU Lesser General Public License for more details.
   
   Cite this work as:
   * C. Bannwarth, E. Caldeweyher, S. Ehlert, A. Hansen, P. Pracht,
     J. Seibert, S. Spicher, S. Grimme, WIREs Comput. Mol. Sci., 2020, 11,
     e01493. DOI: 10.1002/wcms.1493
   
   for GFN2-xTB:
   * C. Bannwarth, S. Ehlert and S. Grimme., J. Chem. Theory Comput., 2019,
     15, 1652-1671. DOI: 10.1021/acs.jctc.8b01176
   for GFN1-xTB:
   * S. Grimme, C. Bannwarth, P. Shushkov, J. Chem. Theory Comput., 2017,
     13, 1989-2009. DOI: 10.1021/acs.jctc.7b00118
   for GFN0-xTB:
   * P. Pracht, E. Caldeweyher, S. Ehlert, S. Grimme, ChemRxiv, 2019, preprint.
     DOI: 10.26434/chemrxiv.8326202.v1
   for GFN-FF:
   * S. Spicher and S. Grimme, Angew. Chem. Int. Ed., 2020, 59, 15665-15673.
     DOI: 10.1002/anie.202004239
   
   for ALPB and GBSA implicit solvation:
   * S. Ehlert, M. Stahn, S. Spicher, S. Grimme, J. Chem. Theory Comput.,
     2021, 17, 4250-4261. DOI: 10.1021/acs.jctc.1c00471
   
   for DFT-D4:
   * E. Caldeweyher, C. Bannwarth and S. Grimme, J. Chem. Phys., 2017,
     147, 034112. DOI: 10.1063/1.4993215
   * E. Caldeweyher, S. Ehlert, A. Hansen, H. Neugebauer, S. Spicher,
     C. Bannwarth and S. Grimme, J. Chem. Phys., 2019, 150, 154122.
     DOI: 10.1063/1.5090222
   * E. Caldeweyher, J.-M. Mewes, S. Ehlert and S. Grimme, Phys. Chem. Chem. Phys.
     2020, 22, 8499-8512. DOI: 10.1039/D0CP00502A
   
   for sTDA-xTB:
   * S. Grimme and C. Bannwarth, J. Chem. Phys., 2016, 145, 054103.
     DOI: 10.1063/1.4959605
   
   in the mass-spec context:
   * V. Asgeirsson, C. Bauer and S. Grimme, Chem. Sci., 2017, 8, 4879.
     DOI: 10.1039/c7sc00601b
   * J. Koopman and S. Grimme, ACS Omega 2019, 4, 12, 15120-15133.
     DOI: 10.1021/acsomega.9b02011
   
   for metadynamics refer to:
   * S. Grimme, J. Chem. Theory Comput., 2019, 155, 2847-2862
     DOI: 10.1021/acs.jctc.9b00143
   
   for SPH calculations refer to:
   * S. Spicher and S. Grimme, J. Chem. Theory Comput., 2021, 17, 1701-1714
     DOI: 10.1021/acs.jctc.0c01306
   
   with help from (in alphabetical order)
   P. Atkinson, C. Bannwarth, F. Bohle, G. Brandenburg, E. Caldeweyher
   M. Checinski, S. Dohm, S. Ehlert, S. Ehrlich, I. Gerasimov, C. Hölzer
   A. Katbashev, J. Koopman, C. Lavigne, S. Lehtola, F. März, M. Müller,
   F. Musil, H. Neugebauer, J. Pisarek, C. Plett, P. Pracht, F. Pultar,
   J. Seibert, P. Shushkov, S. Spicher, M. Stahn, M. Steiner, T. Strunk,
   J. Stückrath, T. Rose, and J. Unsleber
   
 * started run on 2025/08/19 at 09:39:18.081     

           -------------------------------------------------
          |                Calculation Setup                |
           -------------------------------------------------

          program call               : xtb conf.xyz --opt tight --chrg 0 --uhf 0 --gfn2
          coordinate file            : conf.xyz
          omp threads                :                    12

   ID    Z sym.   atoms
    1    6 C      1-4
    2    1 H      5-14

           -------------------------------------------------
          |                 G F N 2 - x T B                 |
           -------------------------------------------------

        Reference                      10.1021/acs.jctc.8b01176
      * Hamiltonian:
        H0-scaling (s, p, d)           1.850000    2.230000    2.230000
        zeta-weighting                 0.500000
      * Dispersion:
        s8                             2.700000
        a1                             0.520000
        a2                             5.000000
        s9                             5.000000
      * Repulsion:
        kExp                           1.500000    1.000000
        rExp                           1.000000
      * Coulomb:
        alpha                          2.000000
        third order                    shell-resolved
        anisotropic                    true
        a3                             3.000000
        a5                             4.000000
        cn-shift                       1.200000
        cn-exp                         4.000000
        max-rad                        5.000000


          ...................................................
          :                      SETUP                      :
          :.................................................:
          :  # basis functions                  26          :
          :  # atomic orbitals                  26          :
          :  # shells                           18          :
          :  # electrons                        26          :
          :  max. iterations                   250          :
          :  Hamiltonian                  GFN2-xTB          :
          :  restarted?                      false          :
          :  GBSA solvation                  false          :
          :  PC potential                    false          :
          :  electronic temp.          300.0000000     K    :
          :  accuracy                    1.0000000          :
          :  -> integral cutoff          0.2500000E+02      :
          :  -> integral neglect         0.1000000E-07      :
          :  -> SCF convergence          0.1000000E-05 Eh   :
          :  -> wf. convergence          0.1000000E-03 e    :
          :  Broyden damping             0.4000000          :
          ...................................................

 iter      E             dE          RMSdq      gap      omega  full diag
   1    -13.8265575 -0.138266E+02  0.249E+00   14.51       0.0  T
   2    -13.8677233 -0.411658E-01  0.124E+00   14.28       1.0  T
   3    -13.8680981 -0.374773E-03  0.677E-01   14.27       1.0  T
   4    -13.8682188 -0.120661E-03  0.881E-02   14.25       1.0  T
   5    -13.8682225 -0.369601E-05  0.461E-02   14.26       1.0  T
   6    -13.8682230 -0.585229E-06  0.309E-03   14.25       8.7  T
   7    -13.8682231 -0.129020E-07  0.641E-04   14.25      41.7  T
   8    -13.8682231 -0.544908E-09  0.163E-04   14.25     164.3  T

   *** convergence criteria satisfied after 8 iterations ***

         #    Occupation            Energy/Eh            Energy/eV
      -------------------------------------------------------------
         1        2.0000           -0.6175758             -16.8051
       ...           ...                  ...                  ...
         7        2.0000           -0.4849547             -13.1963
         8        2.0000           -0.4667278             -12.7003
         9        2.0000           -0.4612580             -12.5515
        10        2.0000           -0.4481746             -12.1955
        11        2.0000           -0.4255528             -11.5799
        12        2.0000           -0.4227138             -11.5026
        13        2.0000           -0.4223784             -11.4935 (HOMO)
        14                          0.1014548               2.7607 (LUMO)
        15                          0.1088491               2.9619
        16                          0.1295076               3.5241
        17                          0.1442944               3.9264
        18                          0.1453519               3.9552
       ...                                ...                  ...
        26                          0.2946220               8.0171
      -------------------------------------------------------------
                  HL-Gap            0.5238331 Eh           14.2542 eV
             Fermi-level           -0.1604618 Eh           -4.3664 eV

 SCC (total)                   0 d,  0 h,  0 min,  0.020 sec
 SCC setup                      ...        0 min,  0.001 sec (  4.008%)
 Dispersion                     ...        0 min,  0.001 sec (  4.369%)
 classical contributions        ...        0 min,  0.001 sec (  3.153%)
 integral evaluation            ...        0 min,  0.001 sec (  3.540%)
 iterations                     ...        0 min,  0.016 sec ( 79.264%)
 molecular gradient             ...        0 min,  0.001 sec (  3.469%)
 printout                       ...        0 min,  0.000 sec (  1.994%)

         :::::::::::::::::::::::::::::::::::::::::::::::::::::
         ::                     SUMMARY                     ::
         :::::::::::::::::::::::::::::::::::::::::::::::::::::
         :: total energy             -13.663867072779 Eh    ::
         :: gradient norm              0.015311561797 Eh/a0 ::
         :: HOMO-LUMO gap             14.254225163645 eV    ::
         ::.................................................::
         :: SCC energy               -13.868223051027 Eh    ::
         :: -> isotropic ES            0.002835883171 Eh    ::
         :: -> anisotropic ES          0.005159651566 Eh    ::
         :: -> anisotropic XC          0.009187149466 Eh    ::
         :: -> dispersion             -0.006303345682 Eh    ::
         :: repulsion energy           0.204348722459 Eh    ::
         :: add. restraining           0.000000000000 Eh    ::
         :: total charge               0.000000000000 e     ::
         :::::::::::::::::::::::::::::::::::::::::::::::::::::

      ----------------------------------------------------------- 
     |                   =====================                   |
     |                        A N C O P T                        |
     |                   =====================                   |
     |               Approximate Normal Coordinate               |
     |                Rational Function Optimizer                |
      ----------------------------------------------------------- 

          ...................................................
          :                      SETUP                      :
          :.................................................:
          :   optimization level             tight          :
          :   max. optcycles                   200          :
          :   ANC micro-cycles                  20          :
          :   degrees of freedom                36          :
          :.................................................:
          :   RF solver                   davidson          :
          :   write xtbopt.log                true          :
          :   linear?                        false          :
          :   energy convergence         0.1000000E-05 Eh   :
          :   grad. convergence          0.8000000E-03 Eh/α :
          :   maxmium RF displ.          1.0000000          :
          :   Hlow (freq-cutoff)         0.1000000E-01      :
          :   Hmax (freq-cutoff)         5.0000000          :
          :   S6 in model hess.         20.0000000          :
          ...................................................

generating ANC from model Hessian ...
Using Lindh-Hessian (1995)
 Shifting diagonal of input Hessian by   5.962267065076562E-003
 Lowest  eigenvalues of input Hessian
    0.000000    0.000000    0.000000    0.000000    0.000000    0.000000
    0.010000    0.012716    0.013780    0.020548    0.024662    0.045351
    0.050583    0.057773    0.058204    0.060077    0.061274    0.066842
 Highest eigenvalues
    1.100912    1.134669    1.143217    1.202162    1.244674    1.277918
 

........................................................................
.............................. CYCLE    1 ..............................
........................................................................

 iter      E             dE          RMSdq      gap      omega  full diag
   1    -13.8682231 -0.138682E+02  0.164E-05   14.25       0.0  T
   2    -13.8682231 -0.936140E-12  0.697E-06   14.25    3836.3  T
   3    -13.8682231 -0.177636E-13  0.275E-06   14.25    9728.7  T
     SCC iter.                  ...        0 min,  0.003 sec
     gradient                   ...        0 min,  0.001 sec
 * total energy  :   -13.6638671 Eh     change       -0.5904610E-11 Eh
   gradient norm :     0.0153111 Eh/α   predicted     0.0000000E+00 (-100.00%)
   displ. norm   :     0.0562814 α      lambda       -0.4438281E-03
   maximum displ.:     0.0309961 α      in ANC's #2, #14, #9, ...

........................................................................
.............................. CYCLE    2 ..............................
........................................................................

 iter      E             dE          RMSdq      gap      omega  full diag
   1    -13.8734239 -0.138734E+02  0.737E-02   14.25       0.0  T
   2    -13.8734277 -0.378979E-05  0.419E-02   14.26       1.0  T
   3    -13.8734279 -0.139912E-06  0.785E-03   14.26       3.4  T
   4    -13.8734279 -0.646887E-08  0.146E-03   14.26      18.3  T
   5    -13.8734279 -0.736005E-09  0.441E-04   14.26      60.6  T
   6    -13.8734279 -0.280854E-09  0.117E-04   14.26     228.2  T
     SCC iter.                  ...        0 min,  0.001 sec
     gradient                   ...        0 min,  0.001 sec
 * total energy  :   -13.6641320 Eh     change       -0.2649363E-03 Eh
   gradient norm :     0.0052550 Eh/α   predicted    -0.2226180E-03 ( -15.97%)
   displ. norm   :     0.0369812 α      lambda       -0.5676177E-04
   maximum displ.:     0.0274924 α      in ANC's #2, #4, #1, ...

........................................................................
.............................. CYCLE    3 ..............................
........................................................................

 iter      E             dE          RMSdq      gap      omega  full diag
   1    -13.8751936 -0.138752E+02  0.199E-02   14.28       0.0  T
   2    -13.8751943 -0.673897E-06  0.107E-02   14.28       2.5  T
   3    -13.8751943 -0.104425E-07  0.358E-03   14.28       7.5  T
   4    -13.8751943 -0.761192E-09  0.379E-04   14.28      70.6  T
   5    -13.8751943 -0.101576E-09  0.644E-05   14.28     415.0  T
     SCC iter.                  ...        0 min,  0.003 sec
     gradient                   ...        0 min,  0.001 sec
 * total energy  :   -13.6641631 Eh     change       -0.3107254E-04 Eh
   gradient norm :     0.0008941 Eh/α   predicted    -0.2842101E-04 (  -8.53%)
   displ. norm   :     0.0262617 α      lambda       -0.4925007E-05
   maximum displ.:     0.0183236 α      in ANC's #1, #2, #4, ...

........................................................................
.............................. CYCLE    4 ..............................
........................................................................

 iter      E             dE          RMSdq      gap      omega  full diag
   1    -13.8751105 -0.138751E+02  0.102E-02   14.27       0.0  T
   2    -13.8751105 -0.283958E-07  0.610E-03   14.27       4.4  T
   3    -13.8751105 -0.101589E-08  0.640E-04   14.27      41.7  T
   4    -13.8751105 -0.136154E-08  0.180E-04   14.27     148.4  T
     SCC iter.                  ...        0 min,  0.001 sec
     gradient                   ...        0 min,  0.001 sec
 * total energy  :   -13.6641675 Eh     change       -0.4375772E-05 Eh
   gradient norm :     0.0006074 Eh/α   predicted    -0.2462721E-05 ( -43.72%)
   displ. norm   :     0.0218077 α      lambda       -0.1939289E-05
   maximum displ.:     0.0200535 α      in ANC's #1, #4, #2, ...

........................................................................
.............................. CYCLE    5 ..............................
........................................................................

 iter      E             dE          RMSdq      gap      omega  full diag
   1    -13.8749124 -0.138749E+02  0.622E-03   14.27       0.0  T
   2    -13.8749124 -0.505466E-08  0.369E-03   14.27       7.3  T
   3    -13.8749124 -0.588313E-09  0.231E-04   14.27     115.5  T
   4    -13.8749124 -0.222826E-10  0.101E-04   14.27     264.9  T
     SCC iter.                  ...        0 min,  0.001 sec
     gradient                   ...        0 min,  0.001 sec
 * total energy  :   -13.6641698 Eh     change       -0.2345549E-05 Eh
   gradient norm :     0.0004188 Eh/α   predicted    -0.9687702E-06 ( -58.70%)
   displ. norm   :     0.0176047 α      lambda       -0.1301640E-05
   maximum displ.:     0.0170800 α      in ANC's #1, #4, #2, ...

........................................................................
.............................. CYCLE    6 ..............................
........................................................................

 iter      E             dE          RMSdq      gap      omega  full diag
   1    -13.8749373 -0.138749E+02  0.541E-03   14.27       0.0  T
   2    -13.8749373 -0.226627E-08  0.323E-03   14.27       8.3  T
   3    -13.8749373 -0.265377E-09  0.163E-04   14.27     163.9  T
   4    -13.8749373 -0.915215E-10  0.767E-05   14.27     348.5  T
     SCC iter.                  ...        0 min,  0.001 sec
     gradient                   ...        0 min,  0.001 sec
 * total energy  :   -13.6641715 Eh     change       -0.1659866E-05 Eh
   gradient norm :     0.0001595 Eh/α   predicted    -0.6513298E-06 ( -60.76%)
   displ. norm   :     0.0140881 α      lambda       -0.8207728E-06
   maximum displ.:     0.0139124 α      in ANC's #1, #2, #7, ...

........................................................................
.............................. CYCLE    7 ..............................
........................................................................

 iter      E             dE          RMSdq      gap      omega  full diag
   1    -13.8749860 -0.138750E+02  0.398E-03   14.27       0.0  T
   2    -13.8749860 -0.457463E-09  0.238E-03   14.27      11.3  T
   3    -13.8749860 -0.162814E-09  0.102E-04   14.27     261.6  T
   4    -13.8749860 -0.109335E-10  0.485E-05   14.27     551.1  T
     SCC iter.                  ...        0 min,  0.001 sec
     gradient                   ...        0 min,  0.001 sec
 * total energy  :   -13.6641726 Eh     change       -0.1104576E-05 Eh
   gradient norm :     0.0001306 Eh/α   predicted    -0.4100219E-06 ( -62.88%)
   displ. norm   :     0.0123454 α      lambda       -0.6321772E-06
   maximum displ.:     0.0118806 α      in ANC's #1, #2, #4, ...

........................................................................
.............................. CYCLE    8 ..............................
........................................................................

 iter      E             dE          RMSdq      gap      omega  full diag
   1    -13.8749921 -0.138750E+02  0.347E-03   14.27       0.0  T
   2    -13.8749921 -0.270992E-09  0.207E-03   14.27      12.9  T
   3    -13.8749921 -0.106141E-09  0.761E-05   14.27     351.1  T
   4    -13.8749921 -0.463984E-11  0.352E-05   14.27     759.7  T
     SCC iter.                  ...        0 min,  0.001 sec
     gradient                   ...        0 min,  0.001 sec
 * total energy  :   -13.6641735 Eh     change       -0.8852421E-06 Eh
   gradient norm :     0.0001454 Eh/α   predicted    -0.3159915E-06 ( -64.30%)
   displ. norm   :     0.0139611 α      lambda       -0.6388613E-06
   maximum displ.:     0.0125665 α      in ANC's #1, #2, #4, ...

   *** GEOMETRY OPTIMIZATION CONVERGED AFTER 8 ITERATIONS ***

------------------------------------------------------------------------
 total energy gain   :        -0.0003064 Eh       -0.1923 kcal/mol
 total RMSD          :         0.0388426 a0        0.0206 Å
 total power (kW/mol):        -0.1005500 (step)  -24.7455 (real)
------------------------------------------------------------------------

 ANCopt (total)                0 d,  0 h,  0 min,  0.033 sec
 optimizer setup                ...        0 min,  0.000 sec (  1.155%)
 model hessian                  ...        0 min,  0.007 sec ( 20.213%)
 ANC generation                 ...        0 min,  0.000 sec (  1.358%)
 coordinate transformation      ...        0 min,  0.000 sec (  0.237%)
 single point calculation       ...        0 min,  0.022 sec ( 66.980%)
 optimization log               ...        0 min,  0.001 sec (  3.033%)
 hessian update                 ...        0 min,  0.000 sec (  0.498%)
 rational function              ...        0 min,  0.001 sec (  3.399%)

================
 final structure:
================
14
 xtb: 6.6.1 (8d0f1dd)
C            1.48966927670584        0.13126452140877        0.68645030495344
C            0.32713157177220       -0.83197686119819        0.47704463464446
C           -0.55880170329055       -0.45671868760986       -0.71128109494356
C           -1.31288255333545        0.85213483591971       -0.50770521978795
H            2.13576953109916       -0.22483223551454        1.48590137762673
H            2.08284334746964        0.21467539291594       -0.22192433001035
H            1.13254138174256        1.12136187659941        0.95718151666952
H            0.72618181985861       -1.83563993668401        0.31016792180389
H           -0.28271222332088       -0.86611534529373        1.38295316140769
H           -1.28259996360340       -1.25950908669727       -0.87274983679470
H            0.05809199065979       -0.38336430378127       -1.61006163463877
H           -1.89764024046748        0.81554034105336        0.40917896334809
H           -1.99092141604134        1.03056967736143       -1.33944843371499
H           -0.62667079924870        1.69260981152026       -0.44570734056350
 
 Bond Distances (Angstroems)
 ---------------------------
C1-C2=1.5242         C1-H5=1.0878         C1-H6=1.0881         C1-H7=1.0868         C2-C1=1.5242         C2-C3=1.5290         
C2-H8=1.0929         C2-H9=1.0926         C3-C2=1.5290         C3-C4=1.5242         C3-H10=1.0929        C3-H11=1.0926        
C4-C3=1.5242         C4-H12=1.0881        C4-H13=1.0878        C4-H14=1.0868        H5-C1=1.0878         H6-C1=1.0881         
H7-C1=1.0868         H8-C2=1.0929         H9-C2=1.0926         H10-C3=1.0929        H11-C3=1.0926        H12-C4=1.0881        
H13-C4=1.0878        H14-C4=1.0868        
 C  H  Rav=1.0896 sigma=0.0026  Rmin=1.0868  Rmax=1.0929    10
 C  C  Rav=1.5258 sigma=0.0023  Rmin=1.5242  Rmax=1.5290     3
 
 selected bond angles (degree)
 --------------------
H5-C1-C2=110.31                H6-C1-C2=110.46                H6-C1-H5=108.35                H7-C1-C2=111.06                
H7-C1-H5=108.08                H7-C1-H6=108.50                C3-C2-C1=113.18                H8-C2-C1=108.84                
H8-C2-C3=108.56                H9-C2-C1=109.36                H9-C2-C3=109.19                H9-C2-H8=107.56                
C4-C3-C2=113.18                H10-C3-C2=108.56               H10-C3-C4=108.84               H11-C3-C2=109.19               
H11-C3-C4=109.36               H11-C3-H10=107.56              H12-C4-C3=110.46               H13-C4-C3=110.31               
H13-C4-H12=108.35              H14-C4-C3=111.06               H14-C4-H12=108.50              H14-C4-H13=108.08              
 
 selected dihedral angles (degree)
 ---------------------------------
C3-C2-C1-H5=184.86            C3-C2-C1-H6=304.62            C3-C2-C1-H7= 65.05            H8-C2-C1-H5=305.65            
H8-C2-C1-H6= 65.41            H8-C2-C1-H7=185.84            H9-C2-C1-H5= 62.89            H9-C2-C1-H6=182.66            
H9-C2-C1-H7=303.09            C4-C3-C2-C1=293.62            C4-C3-C2-H8=172.68            C4-C3-C2-H9= 55.69            
H10-C3-C2-C1=172.68           H10-C3-C2-H8= 51.73           H10-C3-C2-H9=294.74           H11-C3-C2-C1= 55.69           
H11-C3-C2-H8=294.74           H11-C3-C2-H9=177.75           H12-C4-C3-C2=304.62           H12-C4-C3-H10= 65.41          
H12-C4-C3-H11=182.66          H13-C4-C3-C2=184.86           H13-C4-C3-H10=305.65          H13-C4-C3-H11= 62.89          
H14-C4-C3-C2= 65.05           H14-C4-C3-H10=185.84          H14-C4-C3-H11=303.09          
           -------------------------------------------------
          |                Final Singlepoint                |
           -------------------------------------------------

          ...................................................
          :                      SETUP                      :
          :.................................................:
          :  # basis functions                  26          :
          :  # atomic orbitals                  26          :
          :  # shells                           18          :
          :  # electrons                        26          :
          :  max. iterations                   250          :
          :  Hamiltonian                  GFN2-xTB          :
          :  restarted?                      false          :
          :  GBSA solvation                  false          :
          :  PC potential                    false          :
          :  electronic temp.          300.0000000     K    :
          :  accuracy                    1.0000000          :
          :  -> integral cutoff          0.2500000E+02      :
          :  -> integral neglect         0.1000000E-07      :
          :  -> SCF convergence          0.1000000E-05 Eh   :
          :  -> wf. convergence          0.1000000E-03 e    :
          :  Broyden damping             0.4000000          :
          ...................................................

 iter      E             dE          RMSdq      gap      omega  full diag
   1    -13.8749921 -0.138750E+02  0.621E-06   14.27       0.0  T
   2    -13.8749921 -0.248690E-13  0.348E-06   14.27    7676.2  T
   3    -13.8749921  0.177636E-14  0.472E-07   14.27   56582.7  T

   *** convergence criteria satisfied after 3 iterations ***

         #    Occupation            Energy/Eh            Energy/eV
      -------------------------------------------------------------
         1        2.0000           -0.6178205             -16.8118
       ...           ...                  ...                  ...
         7        2.0000           -0.4848280             -13.1928
         8        2.0000           -0.4664880             -12.6938
         9        2.0000           -0.4618480             -12.5675
        10        2.0000           -0.4480227             -12.1913
        11        2.0000           -0.4257832             -11.5861
        12        2.0000           -0.4232979             -11.5185
        13        2.0000           -0.4223672             -11.4932 (HOMO)
        14                          0.1018791               2.7723 (LUMO)
        15                          0.1112092               3.0262
        16                          0.1369509               3.7266
        17                          0.1488742               4.0511
        18                          0.1503064               4.0900
       ...                                ...                  ...
        26                          0.2993065               8.1445
      -------------------------------------------------------------
                  HL-Gap            0.5242463 Eh           14.2655 eV
             Fermi-level           -0.1602441 Eh           -4.3605 eV

 SCC (total)                   0 d,  0 h,  0 min,  0.002 sec
 SCC setup                      ...        0 min,  0.000 sec ( 12.583%)
 Dispersion                     ...        0 min,  0.000 sec (  1.802%)
 classical contributions        ...        0 min,  0.000 sec (  0.614%)
 integral evaluation            ...        0 min,  0.000 sec ( 10.012%)
 iterations                     ...        0 min,  0.001 sec ( 40.319%)
 molecular gradient             ...        0 min,  0.001 sec ( 21.202%)
 printout                       ...        0 min,  0.000 sec ( 12.378%)

         :::::::::::::::::::::::::::::::::::::::::::::::::::::
         ::                     SUMMARY                     ::
         :::::::::::::::::::::::::::::::::::::::::::::::::::::
         :: total energy             -13.664173452603 Eh    ::
         :: gradient norm              0.000145364201 Eh/a0 ::
         :: HOMO-LUMO gap             14.265467956278 eV    ::
         ::.................................................::
         :: SCC energy               -13.874992070229 Eh    ::
         :: -> isotropic ES            0.002971841981 Eh    ::
         :: -> anisotropic ES          0.004962538308 Eh    ::
         :: -> anisotropic XC          0.008995308833 Eh    ::
         :: -> dispersion             -0.006306833874 Eh    ::
         :: repulsion energy           0.210811528883 Eh    ::
         :: add. restraining           0.000000000000 Eh    ::
         :: total charge              -0.000000000000 e     ::
         :::::::::::::::::::::::::::::::::::::::::::::::::::::

           -------------------------------------------------
          |                Property Printout                |
           -------------------------------------------------

    * Orbital Energies and Occupations

         #    Occupation            Energy/Eh            Energy/eV
      -------------------------------------------------------------
         1        2.0000           -0.6178205             -16.8118
         2        2.0000           -0.5960176             -16.2185
         3        2.0000           -0.5731978             -15.5975
         4        2.0000           -0.5474096             -14.8958
         5        2.0000           -0.5063981             -13.7798
         6        2.0000           -0.5060877             -13.7713
         7        2.0000           -0.4848280             -13.1928
         8        2.0000           -0.4664880             -12.6938
         9        2.0000           -0.4618480             -12.5675
        10        2.0000           -0.4480227             -12.1913
        11        2.0000           -0.4257832             -11.5861
        12        2.0000           -0.4232979             -11.5185
        13        2.0000           -0.4223672             -11.4932 (HOMO)
        14                          0.1018791               2.7723 (LUMO)
        15                          0.1112092               3.0262
        16                          0.1369509               3.7266
        17                          0.1488742               4.0511
        18                          0.1503064               4.0900
        19                          0.1579370               4.2977
        20                          0.2030827               5.5262
        21                          0.2063424               5.6149
        22                          0.2345613               6.3827
        23                          0.2483955               6.7592
        24                          0.2787868               7.5862
       ...                                ...                  ...
        26                          0.2993065               8.1445
      -------------------------------------------------------------
                  HL-Gap            0.5242463 Eh           14.2655 eV
             Fermi-level           -0.1602441 Eh           -4.3605 eV

     #   Z          covCN         q      C6AA      α(0)
     1   6 C        3.751    -0.101    22.493     6.764
     2   6 C        3.800    -0.052    21.517     6.604
     3   6 C        3.800    -0.052    21.517     6.604
     4   6 C        3.751    -0.101    22.493     6.764
     5   1 H        0.925     0.030     2.586     2.515
     6   1 H        0.925     0.033     2.549     2.497
     7   1 H        0.925     0.035     2.510     2.478
     8   1 H        0.924     0.026     2.644     2.543
     9   1 H        0.924     0.029     2.594     2.519
    10   1 H        0.924     0.026     2.644     2.543
    11   1 H        0.924     0.029     2.594     2.519
    12   1 H        0.925     0.033     2.549     2.497
    13   1 H        0.925     0.030     2.586     2.515
    14   1 H        0.925     0.035     2.510     2.478

 Mol. C6AA /au·bohr⁶  :       1208.209634
 Mol. C8AA /au·bohr⁸  :      24487.334229
 Mol. α(0) /au        :         51.837142


Wiberg/Mayer (AO) data.
largest (>0.10) Wiberg bond orders for each atom

 ---------------------------------------------------------------------------
     #   Z sym  total        # sym  WBO       # sym  WBO       # sym  WBO
 ---------------------------------------------------------------------------
     1   6 C    3.997 --     2 C    1.020     6 H    0.988     5 H    0.988
                             7 H    0.986
     2   6 C    3.998 --     1 C    1.020     3 C    1.008     8 H    0.979
                             9 H    0.978
     3   6 C    3.998 --     4 C    1.020     2 C    1.008    10 H    0.979
                            11 H    0.978
     4   6 C    3.997 --     3 C    1.020    12 H    0.988    13 H    0.988
                            14 H    0.986
     5   1 H    0.999 --     1 C    0.988
     6   1 H    0.999 --     1 C    0.988
     7   1 H    0.999 --     1 C    0.986
     8   1 H    0.999 --     2 C    0.979
     9   1 H    0.999 --     2 C    0.978
    10   1 H    0.999 --     3 C    0.979
    11   1 H    0.999 --     3 C    0.978
    12   1 H    0.999 --     4 C    0.988
    13   1 H    0.999 --     4 C    0.988
    14   1 H    0.999 --     4 C    0.986
 ---------------------------------------------------------------------------

Topologies differ in total number of bonds
Writing topology from bond orders to xtbtopo.mol

molecular dipole:
                 x           y           z       tot (Debye)
 q only:        0.003       0.016       0.003
   full:        0.002       0.012       0.002       0.032
molecular quadrupole (traceless):
                xx          xy          yy          xz          yz          zz
 q only:       -0.035       0.019       0.087       0.023       0.023      -0.052
  q+dip:       -0.177       0.094      -0.170      -0.494      -0.002       0.347
   full:       -0.090       0.047      -0.064      -0.224       0.002       0.154

           -------------------------------------------------
          |                Geometry Summary                 |
           -------------------------------------------------

      molecular mass/u    :       58.1223511
   center of mass at/Å    :       -0.0103897      -0.0577938      -0.0105047
  moments of inertia/u·Å² :        0.3780264E+02   0.1049719E+03   0.1226836E+03
rotational constants/cm⁻¹ :        0.4459380E+00   0.1605918E+00   0.1374073E+00

 * 13 selected distances

     #   Z          #   Z                                           value/Å
     1   6 C        2   6 C                                       1.5241978
     2   6 C        3   6 C                                       1.5289915 (max)
     3   6 C        4   6 C                                       1.5241978
     1   6 C        5   1 H                                       1.0878293
     1   6 C        6   1 H                                       1.0880981
     1   6 C        7   1 H                                       1.0867975
     2   6 C        8   1 H                                       1.0928992
     2   6 C        9   1 H                                       1.0925866
     3   6 C       10   1 H                                       1.0928992
     3   6 C       11   1 H                                       1.0925866
     4   6 C       12   1 H                                       1.0880981
     4   6 C       13   1 H                                       1.0878293
     4   6 C       14   1 H                                       1.0867975 (min)

 * 2 distinct bonds (by element types)

   Z      Z             #   av. dist./Å        max./Å        min./Å
   1 H    6 C          10     1.0896421     1.0928992     1.0867975
   6 C    6 C           3     1.5257957     1.5289915     1.5241978


optimized geometry written to: xtbopt.xyz


           -------------------------------------------------
          | TOTAL ENERGY              -13.664173452603 Eh   |
          | GRADIENT NORM               0.000145364201 Eh/α |
          | HOMO-LUMO GAP              14.265467956278 eV   |
           -------------------------------------------------

------------------------------------------------------------------------
 * finished run on 2025/08/19 at 09:39:18.160     
------------------------------------------------------------------------
 total:
 * wall-time:     0 d,  0 h,  0 min,  0.078 sec
 *  cpu-time:     0 d,  0 h,  0 min,  0.845 sec
 * ratio c/w:    10.836 speedup
 SCF:
 * wall-time:     0 d,  0 h,  0 min,  0.020 sec
 *  cpu-time:     0 d,  0 h,  0 min,  0.235 sec
 * ratio c/w:    11.683 speedup
 ANC optimizer:
 * wall-time:     0 d,  0 h,  0 min,  0.038 sec
 *  cpu-time:     0 d,  0 h,  0 min,  0.446 sec
 * ratio c/w:    11.854 speedup

