14
 energy: -13.663867072785 gnorm: 0.015311104816 xtb: 6.6.1 (8d0f1dd)
C            1.48523935000000        0.13281229000000        0.69200427000000
C            0.33030309000000       -0.83257863000000        0.47445175000000
C           -0.56214327000000       -0.45706185000000       -0.70885610000000
C           -1.30785813000000        0.85389251000000       -0.51265757000000
H            2.13659012000000       -0.23506985000000        1.49134095000000
H            2.08813620000000        0.23532518000000       -0.21578034000000
H            1.12903683000000        1.12464232000000        0.98536172000000
H            0.74124493000000       -1.83349138000000        0.29642439000000
H           -0.26991081000000       -0.89464306000000        1.38966687000000
H           -1.29686699000000       -1.25723153000000       -0.85820112000000
H            0.03685176000000       -0.40177842000000       -1.62530502000000
H           -1.89527403000000        0.83754042000000        0.41078239000000
H           -1.99480714000000        1.02372361000000       -1.34799883000000
H           -0.62054189000000        1.70391839000000       -0.47123337000000
14
 energy: -13.664132009117 gnorm: 0.005254969491 xtb: 6.6.1 (8d0f1dd)
C            1.48556823426254        0.13344543694246        0.69216164751263
C            0.33124121053690       -0.83444736918717        0.47247436448368
C           -0.56377641113710       -0.45905903953155       -0.70758361832698
C           -1.30794388374335        0.85461297889517       -0.51256984414163
H            2.13641904652105       -0.22756917029141        1.48832345118670
H            2.08080710922273        0.23314021628243       -0.21477401423735
H            1.12531305702894        1.12047430188480        0.97650919798678
H            0.73854202790147       -1.83463663876571        0.29505373099743
H           -0.27575823204461       -0.88590938203510        1.38076522074327
H           -1.29479884362032       -1.25961549480048       -0.85747146314419
H            0.04474572699112       -0.39912991031817       -1.61433553510337
H           -1.88906266969019        0.83349247184964        0.40864418796839
H           -1.99230214414910        1.02921593583728       -1.34261835047740
H           -0.61899420808007        1.69598566323783       -0.46457898544796
14
 energy: -13.664163081558 gnorm: 0.000894065332 xtb: 6.6.1 (8d0f1dd)
C            1.48479954705685        0.13430385001926        0.69006756724007
C            0.32904380569096       -0.83476020695525        0.47452892667401
C           -0.56169185775912       -0.45937402089611       -0.70975327352520
C           -1.30706059877410        0.85439199866960       -0.51036024033592
H            2.13426756962318       -0.22450427302775        1.48540727588346
H            2.07656059001399        0.22999834246035       -0.21776494785733
H            1.12211161287616        1.11950500147761        0.97012547949177
H            0.73495275445798       -1.83427115942087        0.29869712225101
H           -0.27924215147225       -0.88074431116502        1.38120752665496
H           -1.29108088121147       -1.25926263024707       -0.86098422276862
H            0.04978812705422       -0.39562428790203       -1.61320253875727
H           -1.88631593483263        0.82828143214944        0.41011784065050
H           -1.98942668264702        1.03018335863881       -1.33896825121304
H           -0.61670588007674        1.69187690619901       -0.45911827438840
14
 energy: -13.664167457331 gnorm: 0.000607358889 xtb: 6.6.1 (8d0f1dd)
C            1.48571389798033        0.13409937282257        0.68890003728069
C            0.32820801374237       -0.83481241358377        0.47555510995837
C           -0.56086137525815       -0.45935172930790       -0.71078517290316
C           -1.30806010847776        0.85412272405774       -0.50927877352030
H            2.13477127429794       -0.22330601697223        1.48505977882441
H            2.07648173013450        0.22590203933733       -0.22009810484664
H            1.12287877601385        1.12010914203942        0.96605345220977
H            0.73260337492231       -1.83527567915840        0.30347107583707
H           -0.28083980774971       -0.87638468442934        1.38154905256550
H           -1.28892024514535       -1.25930776206487       -0.86594909177684
H            0.05278095293274       -0.39222207520383       -1.61213366307528
H           -1.88776644701096        0.82386476063517        0.41090439326930
H           -1.98951750432116        1.03128592891116       -1.33820173113109
H           -0.61747251206096        1.69127639291695       -0.45504637269179
14
 energy: -13.664169802872 gnorm: 0.000418819537 xtb: 6.6.1 (8d0f1dd)
C            1.48679918435149        0.13324242629679        0.68786194392024
C            0.32750811495274       -0.83409356701742        0.47623917064695
C           -0.55991933096707       -0.45872378266970       -0.71122451426685
C           -1.30943244419766        0.85338300371448       -0.50853073209830
H            2.13535221661656       -0.22363400303538        1.48495391355436
H            2.07811079049675        0.22251255141053       -0.22123818730947
H            1.12570702039936        1.12060421592251        0.96326346124883
H            0.73022984441243       -1.83573547481868        0.30654170839588
H           -0.28204549324293       -0.87275408988189        1.38208622889044
H           -1.28665738334107       -1.25946442481083       -0.86913204661267
H            0.05517176277461       -0.38926017706648       -1.61147275452858
H           -1.89050985530034        0.82105217887421        0.41091768127937
H           -1.99018109700522        1.03115782890884       -1.33817809935605
H           -0.62013330994965        1.69171331417301       -0.45208778376414
14
 energy: -13.664171462731 gnorm: 0.000159542263 xtb: 6.6.1 (8d0f1dd)
C            1.48783667486838        0.13234653321955        0.68726852279121
C            0.32723563145707       -0.83322287681732        0.47657974845903
C           -0.55934858426885       -0.45793553368474       -0.71126363046844
C           -1.31074575788394        0.85274473650543       -0.50821605011542
H            2.13575488784371       -0.22431690123801        1.48504858530395
H            2.07964665972577        0.21960877475197       -0.22167499852328
H            1.12843402184521        1.12078311137241        0.96117742566008
H            0.72835852987624       -1.83584681544305        0.30844068544142
H           -0.28246998906329       -0.86969697982824        1.38244614255625
H           -1.28482055131734       -1.25954556651914       -0.87106633416162
H            0.05662442255468       -0.38659824120339       -1.61079324447135
H           -1.89295859940002        0.81887427567595        0.41043135447393
H           -1.99078475254844        1.03072650511252       -1.33847464394680
H           -0.62276257368916        1.69207897809607       -0.44990357299898
14
 energy: -13.664172567324 gnorm: 0.000130647280 xtb: 6.6.1 (8d0f1dd)
C            1.48880426382078        0.13173137126268        0.68678819255947
C            0.32710159267400       -0.83249206497807        0.47687145248608
C           -0.55895809477940       -0.45723998516920       -0.71129620897418
C           -1.31189172494060        0.85236773853627       -0.50791597771952
H            2.13583109578041       -0.22476796619367        1.48530479372210
H            2.08127433509794        0.21712346495558       -0.22186738439645
H            1.13071837302139        1.12101534392525        0.95923202489214
H            0.72697182831268       -1.83573926591103        0.30946853508091
H           -0.28278911739326       -0.86763425982166        1.38270587093040
H           -1.28341854745807       -1.25956836496326       -0.87207905630882
H            0.05763636538637       -0.38480743381472       -1.61035264100356
H           -1.89533737027752        0.81717779503009        0.40986415684808
H           -1.99099353404354        1.03044356318325       -1.33886363561775
H           -0.62494944520118        1.69239006395849       -0.44786013249889
14
 energy: -13.664173452553 gnorm: 0.000145369601 xtb: 6.6.1 (8d0f1dd)
C            1.48966922531573        0.13126454872027        0.68645032765795
C            0.32713157274542       -0.83197689402691        0.47704462441505
C           -0.55880171554432       -0.45671871838815       -0.71128109623258
C           -1.31288249483156        0.85213484923212       -0.50770523551973
H            2.13576953894904       -0.22483223331630        1.48590134379571
H            2.08284325288522        0.21467553576703       -0.22192432719727
H            1.13254127595891        1.12136185793935        0.95718164069237
H            0.72618186622792       -1.83563994719089        0.31016788506682
H           -0.28271222352079       -0.86611543093020        1.38295314950885
H           -1.28260001286339       -1.25950909295008       -0.87274980254529
H            0.05809196117831       -0.38336438340291       -1.61006165258493
H           -1.89764010353226        0.81554043532747        0.40917900324978
H           -1.99092142448892        1.03056967121116       -1.33944840108524
H           -0.62667069847930        1.69260980200804       -0.44570746922150
