14
 energy: -13.664173452603 gnorm: 0.000145364201 xtb: 6.6.1 (8d0f1dd)
C            1.48966927670584        0.13126452140877        0.68645030495344
C            0.32713157177220       -0.83197686119819        0.47704463464446
C           -0.55880170329055       -0.45671868760986       -0.71128109494356
C           -1.31288255333545        0.85213483591971       -0.50770521978795
H            2.13576953109916       -0.22483223551454        1.48590137762673
H            2.08284334746964        0.21467539291594       -0.22192433001035
H            1.13254138174256        1.12136187659941        0.95718151666952
H            0.72618181985861       -1.83563993668401        0.31016792180389
H           -0.28271222332088       -0.86611534529373        1.38295316140769
H           -1.28259996360340       -1.25950908669727       -0.87274983679470
H            0.05809199065979       -0.38336430378127       -1.61006163463877
H           -1.89764024046748        0.81554034105336        0.40917896334809
H           -1.99092141604134        1.03056967736143       -1.33944843371499
H           -0.62667079924870        1.69260981152026       -0.44570734056350
