14
 energy: -13.663867072785 gnorm: 0.015311101908 xtb: 6.6.1 (8d0f1dd)
C            1.48523935000000        0.13281229000000        0.69200427000000
C            0.33030309000000       -0.83257863000000        0.47445175000000
C           -0.56214327000000       -0.45706185000000       -0.70885610000000
C           -1.30785813000000        0.85389251000000       -0.51265757000000
H            2.13659012000000       -0.23506985000000        1.49134095000000
H            2.08813620000000        0.23532518000000       -0.21578034000000
H            1.12903683000000        1.12464232000000        0.98536172000000
H            0.74124493000000       -1.83349138000000        0.29642439000000
H           -0.26991081000000       -0.89464306000000        1.38966687000000
H           -1.29686699000000       -1.25723153000000       -0.85820112000000
H            0.03685176000000       -0.40177842000000       -1.62530502000000
H           -1.89527403000000        0.83754042000000        0.41078239000000
H           -1.99480714000000        1.02372361000000       -1.34799883000000
H           -0.62054189000000        1.70391839000000       -0.47123337000000
14
 energy: -13.664132009059 gnorm: 0.005254977688 xtb: 6.6.1 (8d0f1dd)
C            1.48556822809863        0.13344543797570        0.69216163714332
C            0.33124120626241       -0.83444736679351        0.47247437193223
C           -0.56377640504528       -0.45905903684389       -0.70758362551859
C           -1.30794387858189        0.85461297471148       -0.51256983296298
H            2.13641904057984       -0.22756917189475        1.48832344696377
H            2.08080710929864        0.23314022303370       -0.21477402103079
H            1.12531305062956        1.12047430852227        0.97650920172544
H            0.73854202195215       -1.83463663799227        0.29505374260644
H           -0.27575823379957       -0.88590939541662        1.38076523552577
H           -1.29479883714660       -1.25961549209803       -0.85747147418510
H            0.04474572448866       -0.39912991761816       -1.61433555295406
H           -1.88906266728942        0.83349247551837        0.40864419553979
H           -1.99230213951177        1.02921593107848       -1.34261834760500
H           -0.61899419993536        1.69598566781723       -0.46457898718024
14
 energy: -13.664163081598 gnorm: 0.000894064035 xtb: 6.6.1 (8d0f1dd)
C            1.48479953690986        0.13430385491909        0.69006755451033
C            0.32904379841913       -0.83476021169750        0.47452893210234
C           -0.56169185149948       -0.45937402481052       -0.70975328049461
C           -1.30706058844606        0.85439199533581       -0.51036022758891
H            2.13426756657775       -0.22450424517855        1.48540726376289
H            2.07656056628257        0.22999832175735       -0.21776496777092
H            1.12211159956777        1.11950501218171        0.97012543866283
H            0.73495273695448       -1.83427117307286        0.29869716089766
H           -0.27924217463028       -0.88074429012843        1.38120752216975
H           -1.29108086755076       -1.25926263520122       -0.86098426427144
H            0.04978815564903       -0.39562427808892       -1.61320252842006
H           -1.88631592083118        0.82828139880136        0.41011785097864
H           -1.98942667079825        1.03018337800461       -1.33896823081786
H           -0.61670586660458        1.69187689717807       -0.45911823372065
14
 energy: -13.664167457370 gnorm: 0.000607364247 xtb: 6.6.1 (8d0f1dd)
C            1.48571391155513        0.13409935851313        0.68890001762713
C            0.32820799947300       -0.83481240275439        0.47555512783270
C           -0.56086135719158       -0.45935171787429       -0.71078518686006
C           -1.30806012761212        0.85412270839653       -0.50927875892315
H            2.13477128643943       -0.22330600716172        1.48505976792236
H            2.07648173507886        0.22590197343964       -0.22009813124981
H            1.12287880875373        1.12010913851642        0.96605339171745
H            0.73260333549657       -1.83527568699572        0.30347115187368
H           -0.28083983342883       -0.87638460730461        1.38154906254502
H           -1.28892020679555       -1.25930775722039       -0.86594916882269
H            0.05278100358262       -0.39222201353649       -1.61213364832570
H           -1.88776647528756        0.82386469554212        0.41090439589955
H           -1.98951751283358        1.03128593764641       -1.33820171651098
H           -0.61747254723012        1.69127638079335       -0.45504631472550
14
 energy: -13.664169802919 gnorm: 0.000418821888 xtb: 6.6.1 (8d0f1dd)
C            1.48679921474003        0.13324240569437        0.68786191962449
C            0.32750810140668       -0.83409354989466        0.47623918803121
C           -0.55991931096310       -0.45872376559146       -0.71122452561378
C           -1.30943248191534        0.85338298636261       -0.50853071438736
H            2.13535222995603       -0.22363401640337        1.48495390603983
H            2.07811083298853        0.22251246974503       -0.22123821406243
H            1.12570709631449        1.12060422404735        0.96326339511502
H            0.73022977461746       -1.83573548859854        0.30654178723948
H           -0.28204552187132       -0.87275399169270        1.38208624209967
H           -1.28665731774952       -1.25946443421431       -0.86913212997524
H            0.05517182312464       -0.38926009663128       -1.61147273521436
H           -1.89050992383320        0.82105211251206        0.41091768117877
H           -1.99018111454147        1.03115781943330       -1.33817809583184
H           -0.62013338227392        1.69171332523159       -0.45208771424346
14
 energy: -13.664171462784 gnorm: 0.000159546031 xtb: 6.6.1 (8d0f1dd)
C            1.48783673179721        0.13234649913222        0.68726850744484
C            0.32723562491149       -0.83322284398985        0.47657976456087
C           -0.55934856647277       -0.45793550218124       -0.71126363535551
C           -1.31074582410414        0.85274472019684       -0.50821604382145
H            2.13575491250453       -0.22431694373261        1.48504859829579
H            2.07964674070201        0.21960866223788       -0.22167501146466
H            1.12843413783692        1.12078311769322        0.96117736015210
H            0.72835846649511       -1.83584681421511        0.30844074982537
H           -0.28247000127974       -0.86969686950872        1.38244616216191
H           -1.28482048729875       -1.25954556501320       -0.87106639829322
H            0.05662447205604       -0.38659814184968       -1.61079322602469
H           -1.89295871337642        0.81887419979985        0.41043133368943
H           -1.99078478915366        1.03072648046559       -1.33847466852299
H           -0.62276268461783        1.69207900096481       -0.44990350264780
14
 energy: -13.664172567360 gnorm: 0.000130645226 xtb: 6.6.1 (8d0f1dd)
C            1.48880430124218        0.13173135323478        0.68678817927820
C            0.32710159046436       -0.83249204252030        0.47687146065018
C           -0.55895808429720       -0.45723996355204       -0.71129620876097
C           -1.31189176745264        0.85236773144339       -0.50791596923238
H            2.13583109716632       -0.22476798685252        1.48530480671296
H            2.08127439492461        0.21712337485335       -0.22186738874360
H            1.13071845946105        1.12101535776106        0.95923196184859
H            0.72697178393725       -1.83573926455482        0.30946856716358
H           -0.28278912218369       -0.86763419040349        1.38270587803871
H           -1.28341850259744       -1.25956836681670       -0.87207908808246
H            0.05763639438872       -0.38480737123462       -1.61035262404016
H           -1.89533745676827        0.81717773505618        0.40986413401804
H           -1.99099354249092        1.03044354999879       -1.33886365474690
H           -0.62494952579433        1.69239008358692       -0.44786006410378
14
 energy: -13.664173452602 gnorm: 0.000145369052 xtb: 6.6.1 (8d0f1dd)
C            1.48966927670584        0.13126452140877        0.68645030495344
C            0.32713157177220       -0.83197686119819        0.47704463464446
C           -0.55880170329055       -0.45671868760986       -0.71128109494356
C           -1.31288255333545        0.85213483591971       -0.50770521978795
H            2.13576953109916       -0.22483223551454        1.48590137762673
H            2.08284334746964        0.21467539291594       -0.22192433001035
H            1.13254138174256        1.12136187659941        0.95718151666952
H            0.72618181985861       -1.83563993668401        0.31016792180389
H           -0.28271222332088       -0.86611534529373        1.38295316140769
H           -1.28259996360340       -1.25950908669727       -0.87274983679470
H            0.05809199065979       -0.38336430378127       -1.61006163463877
H           -1.89764024046748        0.81554034105336        0.40917896334809
H           -1.99092141604134        1.03056967736143       -1.33944843371499
H           -0.62667079924870        1.69260981152026       -0.44570734056350
