      -----------------------------------------------------------      
     |                   =====================                   |     
     |                           x T B                           |     
     |                   =====================                   |     
     |                         S. Grimme                         |     
     |          Mulliken Center for Theoretical Chemistry        |     
     |                    University of Bonn                     |     
      -----------------------------------------------------------      

   * xtb version 6.6.1 (8d0f1dd) compiled by 'stahn@M-Bot' on 2023-08-01

   xtb is free software: you can redistribute it and/or modify it under
   the terms of the GNU Lesser General Public License as published by
   the Free Software Foundation, either version 3 of the License, or
   (at your option) any later version.
   
   xtb is distributed in the hope that it will be useful,
   but WITHOUT ANY WARRANTY; without even the implied warranty of
   MERCHANTABILITY or FITNESS FOR A PARTICULAR PURPOSE.  See the
   GNU Lesser General Public License for more details.
   
   Cite this work as:
   * C. Bannwarth, E. Caldeweyher, S. Ehlert, A. Hansen, P. Pracht,
     J. Seibert, S. Spicher, S. Grimme, WIREs Comput. Mol. Sci., 2020, 11,
     e01493. DOI: 10.1002/wcms.1493
   
   for GFN2-xTB:
   * C. Bannwarth, S. Ehlert and S. Grimme., J. Chem. Theory Comput., 2019,
     15, 1652-1671. DOI: 10.1021/acs.jctc.8b01176
   for GFN1-xTB:
   * S. Grimme, C. Bannwarth, P. Shushkov, J. Chem. Theory Comput., 2017,
     13, 1989-2009. DOI: 10.1021/acs.jctc.7b00118
   for GFN0-xTB:
   * P. Pracht, E. Caldeweyher, S. Ehlert, S. Grimme, ChemRxiv, 2019, preprint.
     DOI: 10.26434/chemrxiv.8326202.v1
   for GFN-FF:
   * S. Spicher and S. Grimme, Angew. Chem. Int. Ed., 2020, 59, 15665-15673.
     DOI: 10.1002/anie.202004239
   
   for ALPB and GBSA implicit solvation:
   * S. Ehlert, M. Stahn, S. Spicher, S. Grimme, J. Chem. Theory Comput.,
     2021, 17, 4250-4261. DOI: 10.1021/acs.jctc.1c00471
   
   for DFT-D4:
   * E. Caldeweyher, C. Bannwarth and S. Grimme, J. Chem. Phys., 2017,
     147, 034112. DOI: 10.1063/1.4993215
   * E. Caldeweyher, S. Ehlert, A. Hansen, H. Neugebauer, S. Spicher,
     C. Bannwarth and S. Grimme, J. Chem. Phys., 2019, 150, 154122.
     DOI: 10.1063/1.5090222
   * E. Caldeweyher, J.-M. Mewes, S. Ehlert and S. Grimme, Phys. Chem. Chem. Phys.
     2020, 22, 8499-8512. DOI: 10.1039/D0CP00502A
   
   for sTDA-xTB:
   * S. Grimme and C. Bannwarth, J. Chem. Phys., 2016, 145, 054103.
     DOI: 10.1063/1.4959605
   
   in the mass-spec context:
   * V. Asgeirsson, C. Bauer and S. Grimme, Chem. Sci., 2017, 8, 4879.
     DOI: 10.1039/c7sc00601b
   * J. Koopman and S. Grimme, ACS Omega 2019, 4, 12, 15120-15133.
     DOI: 10.1021/acsomega.9b02011
   
   for metadynamics refer to:
   * S. Grimme, J. Chem. Theory Comput., 2019, 155, 2847-2862
     DOI: 10.1021/acs.jctc.9b00143
   
   for SPH calculations refer to:
   * S. Spicher and S. Grimme, J. Chem. Theory Comput., 2021, 17, 1701-1714
     DOI: 10.1021/acs.jctc.0c01306
   
   with help from (in alphabetical order)
   P. Atkinson, C. Bannwarth, F. Bohle, G. Brandenburg, E. Caldeweyher
   M. Checinski, S. Dohm, S. Ehlert, S. Ehrlich, I. Gerasimov, C. Hölzer
   A. Katbashev, J. Koopman, C. Lavigne, S. Lehtola, F. März, M. Müller,
   F. Musil, H. Neugebauer, J. Pisarek, C. Plett, P. Pracht, F. Pultar,
   J. Seibert, P. Shushkov, S. Spicher, M. Stahn, M. Steiner, T. Strunk,
   J. Stückrath, T. Rose, and J. Unsleber
   
 * started run on 2025/08/26 at 12:19:44.727     

           -------------------------------------------------
          |                Calculation Setup                |
           -------------------------------------------------

          program call               : xtb conf.xyz --opt tight --chrg 0 --uhf 0 --gfn2
          coordinate file            : conf.xyz
          omp threads                :                     1

   ID    Z sym.   atoms
    1    6 C      1-4
    2    1 H      5-14

           -------------------------------------------------
          |                 G F N 2 - x T B                 |
           -------------------------------------------------

        Reference                      10.1021/acs.jctc.8b01176
      * Hamiltonian:
        H0-scaling (s, p, d)           1.850000    2.230000    2.230000
        zeta-weighting                 0.500000
      * Dispersion:
        s8                             2.700000
        a1                             0.520000
        a2                             5.000000
        s9                             5.000000
      * Repulsion:
        kExp                           1.500000    1.000000
        rExp                           1.000000
      * Coulomb:
        alpha                          2.000000
        third order                    shell-resolved
        anisotropic                    true
        a3                             3.000000
        a5                             4.000000
        cn-shift                       1.200000
        cn-exp                         4.000000
        max-rad                        5.000000

q/qsh data taken from xtbrestart
CAMM data taken from xtbrestart

          ...................................................
          :                      SETUP                      :
          :.................................................:
          :  # basis functions                  26          :
          :  # atomic orbitals                  26          :
          :  # shells                           18          :
          :  # electrons                        26          :
          :  max. iterations                   250          :
          :  Hamiltonian                  GFN2-xTB          :
          :  restarted?                       true          :
          :  GBSA solvation                  false          :
          :  PC potential                    false          :
          :  electronic temp.          300.0000000     K    :
          :  accuracy                    1.0000000          :
          :  -> integral cutoff          0.2500000E+02      :
          :  -> integral neglect         0.1000000E-07      :
          :  -> SCF convergence          0.1000000E-05 Eh   :
          :  -> wf. convergence          0.1000000E-03 e    :
          :  Broyden damping             0.4000000          :
          ...................................................

 iter      E             dE          RMSdq      gap      omega  full diag
   1    -13.8671810 -0.138672E+02  0.262E+00   13.88       0.0  T
   2    -13.8688076 -0.162660E-02  0.156E+00   13.87       1.0  T
   3    -13.8692815 -0.473905E-03  0.165E-01   13.92       1.0  T
   4    -13.8692953 -0.138831E-04  0.946E-02   13.92       1.0  T
   5    -13.8692954 -0.751936E-07  0.204E-02   13.92       1.3  T
   6    -13.8692965 -0.108400E-05  0.356E-03   13.92       7.5  T
   7    -13.8692965 -0.118978E-07  0.973E-04   13.92      27.5  T
   8    -13.8692965 -0.199447E-08  0.304E-04   13.92      88.0  T

   *** convergence criteria satisfied after 8 iterations ***

         #    Occupation            Energy/Eh            Energy/eV
      -------------------------------------------------------------
         1        2.0000           -0.6178644             -16.8129
       ...           ...                  ...                  ...
         7        2.0000           -0.4876509             -13.2697
         8        2.0000           -0.4788058             -13.0290
         9        2.0000           -0.4542814             -12.3616
        10        2.0000           -0.4388939             -11.9429
        11        2.0000           -0.4370399             -11.8925
        12        2.0000           -0.4254577             -11.5773
        13        2.0000           -0.4194816             -11.4147 (HOMO)
        14                          0.0921092               2.5064 (LUMO)
        15                          0.1196588               3.2561
        16                          0.1218076               3.3146
        17                          0.1500010               4.0817
        18                          0.1534128               4.1746
       ...                                ...                  ...
        26                          0.3052291               8.3057
      -------------------------------------------------------------
                  HL-Gap            0.5115908 Eh           13.9211 eV
             Fermi-level           -0.1636862 Eh           -4.4541 eV

 SCC (total)                   0 d,  0 h,  0 min,  0.007 sec
 SCC setup                      ...        0 min,  0.000 sec (  2.718%)
 Dispersion                     ...        0 min,  0.000 sec (  1.502%)
 classical contributions        ...        0 min,  0.000 sec (  0.313%)
 integral evaluation            ...        0 min,  0.001 sec (  9.426%)
 iterations                     ...        0 min,  0.005 sec ( 61.452%)
 molecular gradient             ...        0 min,  0.001 sec ( 20.038%)
 printout                       ...        0 min,  0.000 sec (  3.894%)

         :::::::::::::::::::::::::::::::::::::::::::::::::::::
         ::                     SUMMARY                     ::
         :::::::::::::::::::::::::::::::::::::::::::::::::::::
         :: total energy             -13.664813881216 Eh    ::
         :: gradient norm              0.014962809385 Eh/a0 ::
         :: HOMO-LUMO gap             13.921093296578 eV    ::
         ::.................................................::
         :: SCC energy               -13.869296522295 Eh    ::
         :: -> isotropic ES            0.002881553599 Eh    ::
         :: -> anisotropic ES          0.005112453911 Eh    ::
         :: -> anisotropic XC          0.009319108386 Eh    ::
         :: -> dispersion             -0.006053734134 Eh    ::
         :: repulsion energy           0.204478597837 Eh    ::
         :: add. restraining           0.000000000000 Eh    ::
         :: total charge              -0.000000000000 e     ::
         :::::::::::::::::::::::::::::::::::::::::::::::::::::

      ----------------------------------------------------------- 
     |                   =====================                   |
     |                        A N C O P T                        |
     |                   =====================                   |
     |               Approximate Normal Coordinate               |
     |                Rational Function Optimizer                |
      ----------------------------------------------------------- 

          ...................................................
          :                      SETUP                      :
          :.................................................:
          :   optimization level             tight          :
          :   max. optcycles                   200          :
          :   ANC micro-cycles                  20          :
          :   degrees of freedom                36          :
          :.................................................:
          :   RF solver                   davidson          :
          :   write xtbopt.log                true          :
          :   linear?                        false          :
          :   energy convergence         0.1000000E-05 Eh   :
          :   grad. convergence          0.8000000E-03 Eh/α :
          :   maxmium RF displ.          1.0000000          :
          :   Hlow (freq-cutoff)         0.1000000E-01      :
          :   Hmax (freq-cutoff)         5.0000000          :
          :   S6 in model hess.         20.0000000          :
          ...................................................

generating ANC from model Hessian ...
Using Lindh-Hessian (1995)
 Shifting diagonal of input Hessian by   5.841808279863820E-003
 Lowest  eigenvalues of input Hessian
    0.000000    0.000000    0.000000    0.000000    0.000000    0.000000
    0.010000    0.013435    0.013616    0.018016    0.022513    0.045181
    0.047367    0.056709    0.059139    0.059502    0.061492    0.069745
 Highest eigenvalues
    1.104613    1.129289    1.179941    1.195392    1.221538    1.283343
 

........................................................................
.............................. CYCLE    1 ..............................
........................................................................

 iter      E             dE          RMSdq      gap      omega  full diag
   1    -13.8692965 -0.138693E+02  0.555E-05   13.92       0.0  T
   2    -13.8692965 -0.628297E-11  0.310E-05   13.92     861.8  T
   3    -13.8692965 -0.129674E-12  0.124E-05   13.92    2155.6  T
     SCC iter.                  ...        0 min,  0.001 sec
     gradient                   ...        0 min,  0.001 sec
 * total energy  :   -13.6648139 Eh     change       -0.5477396E-10 Eh
   gradient norm :     0.0149627 Eh/α   predicted     0.0000000E+00 (-100.00%)
   displ. norm   :     0.0650572 α      lambda       -0.5705324E-03
   maximum displ.:     0.0433735 α      in ANC's #8, #14, #24, ...

........................................................................
.............................. CYCLE    2 ..............................
........................................................................

 iter      E             dE          RMSdq      gap      omega  full diag
   1    -13.8747071 -0.138747E+02  0.109E-01   13.75       0.0  T
   2    -13.8747108 -0.374151E-05  0.643E-02   13.75       1.0  T
   3    -13.8747110 -0.190083E-06  0.534E-03   13.75       5.0  T
   4    -13.8747110 -0.230600E-07  0.177E-03   13.75      15.1  T
   5    -13.8747110 -0.829766E-09  0.845E-04   13.75      31.6  T
   6    -13.8747110 -0.269498E-09  0.675E-05   13.75     396.2  T
     SCC iter.                  ...        0 min,  0.001 sec
     gradient                   ...        0 min,  0.001 sec
 * total energy  :   -13.6651025 Eh     change       -0.2885863E-03 Eh
   gradient norm :     0.0049813 Eh/α   predicted    -0.2864732E-03 (  -0.73%)
   displ. norm   :     0.0233322 α      lambda       -0.4303925E-04
   maximum displ.:     0.0212086 α      in ANC's #5, #8, #11, ...

........................................................................
.............................. CYCLE    3 ..............................
........................................................................

 iter      E             dE          RMSdq      gap      omega  full diag
   1    -13.8760690 -0.138761E+02  0.242E-02   13.81       0.0  T
   2    -13.8760693 -0.357673E-06  0.134E-02   13.81       2.0  T
   3    -13.8760693 -0.412677E-08  0.262E-03   13.81      10.2  T
   4    -13.8760693 -0.705505E-09  0.256E-04   13.81     104.4  T
   5    -13.8760693 -0.169980E-10  0.127E-04   13.81     209.6  T
     SCC iter.                  ...        0 min,  0.001 sec
     gradient                   ...        0 min,  0.001 sec
 * total energy  :   -13.6651264 Eh     change       -0.2390829E-04 Eh
   gradient norm :     0.0011617 Eh/α   predicted    -0.2152942E-04 (  -9.95%)
   displ. norm   :     0.0064269 α      lambda       -0.2338659E-05
   maximum displ.:     0.0040055 α      in ANC's #5, #8, #11, ...

........................................................................
.............................. CYCLE    4 ..............................
........................................................................

 iter      E             dE          RMSdq      gap      omega  full diag
   1    -13.8761168 -0.138761E+02  0.877E-03   13.80       0.0  T
   2    -13.8761169 -0.285969E-07  0.510E-03   13.80       5.2  T
   3    -13.8761169 -0.628807E-09  0.654E-04   13.80      40.9  T
   4    -13.8761169 -0.955284E-09  0.140E-04   13.80     191.1  T
     SCC iter.                  ...        0 min,  0.001 sec
     gradient                   ...        0 min,  0.001 sec
 * total energy  :   -13.6651276 Eh     change       -0.1195631E-05 Eh
   gradient norm :     0.0002945 Eh/α   predicted    -0.1169591E-05 (  -2.18%)
   displ. norm   :     0.0027971 α      lambda       -0.2676720E-06
   maximum displ.:     0.0019170 α      in ANC's #5, #8, #11, ...

........................................................................
.............................. CYCLE    5 ..............................
........................................................................

 iter      E             dE          RMSdq      gap      omega  full diag
   1    -13.8760233 -0.138760E+02  0.338E-03   13.80       0.0  T
   2    -13.8760233 -0.190639E-08  0.195E-03   13.80      13.7  T
   3    -13.8760233 -0.100419E-09  0.139E-04   13.80     193.0  T
   4    -13.8760233 -0.370672E-10  0.373E-05   13.80     716.2  T
     SCC iter.                  ...        0 min,  0.001 sec
     gradient                   ...        0 min,  0.001 sec
 * total energy  :   -13.6651278 Eh     change       -0.1823814E-06 Eh
   gradient norm :     0.0000398 Eh/α   predicted    -0.1330480E-06 ( -27.05%)
   displ. norm   :     0.0004637 α      lambda       -0.6534057E-08
   maximum displ.:     0.0003530 α      in ANC's #8, #5, #24, ...

   *** GEOMETRY OPTIMIZATION CONVERGED AFTER 5 ITERATIONS ***

------------------------------------------------------------------------
 total energy gain   :        -0.0003139 Eh       -0.1970 kcal/mol
 total RMSD          :         0.0157205 a0        0.0083 Å
 total power (kW/mol):        -0.1648145 (step)  -39.0312 (real)
------------------------------------------------------------------------

 ANCopt (total)                0 d,  0 h,  0 min,  0.021 sec
 optimizer setup                ...        0 min,  0.000 sec (  1.008%)
 model hessian                  ...        0 min,  0.002 sec ( 10.977%)
 ANC generation                 ...        0 min,  0.000 sec (  1.846%)
 coordinate transformation      ...        0 min,  0.000 sec (  0.313%)
 single point calculation       ...        0 min,  0.016 sec ( 73.465%)
 optimization log               ...        0 min,  0.001 sec (  6.868%)
 hessian update                 ...        0 min,  0.000 sec (  0.388%)
 rational function              ...        0 min,  0.001 sec (  3.228%)

================
 final structure:
================
14
 xtb: 6.6.1 (8d0f1dd)
C           -1.89245910129393        0.06503456268109       -0.43361658282173
C           -0.39767349996912        0.33174355488931       -0.56088394355700
C            0.39767341472402       -0.33174285209098        0.56088445443156
C            1.89245916084865       -0.06503507646478        0.43361622431930
H           -2.26937567937265        0.44942542634250        0.51190695467708
H           -2.09389296275131       -1.00351489206434       -0.47187441893329
H           -2.43861429764579        0.54625810979952       -1.24175336514094
H           -0.04265828363357       -0.04353503999055       -1.52363149583423
H           -0.21812527968104        1.40927607636068       -0.53993686536410
H            0.21812437368024       -1.40927525041885        0.53993801560480
H            0.04265892900123        0.04353651266461        1.52363197791738
H            2.26937496639126       -0.44942684220857       -0.51190725357780
H            2.09389387587238        1.00351424654054        0.47187325952700
H            2.43861438382964       -0.54625854604019        1.24175303875198
 
 Bond Distances (Angstroems)
 ---------------------------
C1-C2=1.5237         C1-H5=1.0880         C1-H6=1.0880         C1-H7=1.0876         C2-C1=1.5237         C2-C3=1.5268         
C2-H8=1.0926         C2-H9=1.0926         C3-C2=1.5268         C3-C4=1.5237         C3-H10=1.0926        C3-H11=1.0926        
C4-C3=1.5237         C4-H12=1.0880        C4-H13=1.0880        C4-H14=1.0876        H5-C1=1.0880         H6-C1=1.0880         
H7-C1=1.0876         H8-C2=1.0926         H9-C2=1.0926         H10-C3=1.0926        H11-C3=1.0926        H12-C4=1.0880        
H13-C4=1.0880        H14-C4=1.0876        
 C  H  Rav=1.0898 sigma=0.0023  Rmin=1.0876  Rmax=1.0926    10
 C  C  Rav=1.5247 sigma=0.0015  Rmin=1.5237  Rmax=1.5268     3
 
 selected bond angles (degree)
 --------------------
H5-C1-C2=110.52                H6-C1-C2=110.52                H6-C1-H5=108.26                H7-C1-C2=110.68                
H7-C1-H5=108.39                H7-C1-H6=108.39                C3-C2-C1=111.94                H8-C2-C1=109.40                
H8-C2-C3=109.20                H9-C2-C1=109.40                H9-C2-C3=109.20                H9-C2-H8=107.59                
C4-C3-C2=111.94                H10-C3-C2=109.20               H10-C3-C4=109.40               H11-C3-C2=109.20               
H11-C3-C4=109.40               H11-C3-H10=107.59              H12-C4-C3=110.52               H13-C4-C3=110.52               
H13-C4-H12=108.26              H14-C4-C3=110.68               H14-C4-H12=108.39              H14-C4-H13=108.39              
 
 selected dihedral angles (degree)
 ---------------------------------
C3-C2-C1-H5= 59.92            C3-C2-C1-H6=300.09            C3-C2-C1-H7=180.00            H8-C2-C1-H5=181.10            
H8-C2-C1-H6= 61.27            H8-C2-C1-H7=301.18            H9-C2-C1-H5=298.73            H9-C2-C1-H6=178.90            
H9-C2-C1-H7= 58.82            C4-C3-C2-C1=180.00            C4-C3-C2-H8= 58.70            C4-C3-C2-H9=301.30            
H10-C3-C2-C1= 58.70           H10-C3-C2-H8=297.40           H10-C3-C2-H9=180.00           H11-C3-C2-C1=301.30           
H11-C3-C2-H8=180.00           H11-C3-C2-H9= 62.60           H12-C4-C3-C2=300.08           H12-C4-C3-H10= 61.27          
H12-C4-C3-H11=178.90          H13-C4-C3-C2= 59.91           H13-C4-C3-H10=181.10          H13-C4-C3-H11=298.73          
H14-C4-C3-C2=180.00           H14-C4-C3-H10=301.18          H14-C4-C3-H11= 58.82          
           -------------------------------------------------
          |                Final Singlepoint                |
           -------------------------------------------------

          ...................................................
          :                      SETUP                      :
          :.................................................:
          :  # basis functions                  26          :
          :  # atomic orbitals                  26          :
          :  # shells                           18          :
          :  # electrons                        26          :
          :  max. iterations                   250          :
          :  Hamiltonian                  GFN2-xTB          :
          :  restarted?                      false          :
          :  GBSA solvation                  false          :
          :  PC potential                    false          :
          :  electronic temp.          300.0000000     K    :
          :  accuracy                    1.0000000          :
          :  -> integral cutoff          0.2500000E+02      :
          :  -> integral neglect         0.1000000E-07      :
          :  -> SCF convergence          0.1000000E-05 Eh   :
          :  -> wf. convergence          0.1000000E-03 e    :
          :  Broyden damping             0.4000000          :
          ...................................................

 iter      E             dE          RMSdq      gap      omega  full diag
   1    -13.8760233 -0.138760E+02  0.194E-05   13.80       0.0  T
   2    -13.8760233 -0.301981E-13  0.113E-05   13.80    2356.0  T
   3    -13.8760233 -0.106581E-13  0.693E-07   13.80   38592.3  T

   *** convergence criteria satisfied after 3 iterations ***

         #    Occupation            Energy/Eh            Energy/eV
      -------------------------------------------------------------
         1        2.0000           -0.6179675             -16.8158
       ...           ...                  ...                  ...
         7        2.0000           -0.4878873             -13.2761
         8        2.0000           -0.4789776             -13.0336
         9        2.0000           -0.4546550             -12.3718
        10        2.0000           -0.4395123             -11.9597
        11        2.0000           -0.4367371             -11.8842
        12        2.0000           -0.4258105             -11.5869
        13        2.0000           -0.4195592             -11.4168 (HOMO)
        14                          0.0876147               2.3841 (LUMO)
        15                          0.1267124               3.4480
        16                          0.1277836               3.4772
        17                          0.1525450               4.1510
        18                          0.1629251               4.4334
       ...                                ...                  ...
        26                          0.3113861               8.4732
      -------------------------------------------------------------
                  HL-Gap            0.5071738 Eh           13.8009 eV
             Fermi-level           -0.1659722 Eh           -4.5163 eV

 SCC (total)                   0 d,  0 h,  0 min,  0.003 sec
 SCC setup                      ...        0 min,  0.000 sec (  3.066%)
 Dispersion                     ...        0 min,  0.000 sec (  1.167%)
 classical contributions        ...        0 min,  0.000 sec (  0.618%)
 integral evaluation            ...        0 min,  0.001 sec ( 20.610%)
 iterations                     ...        0 min,  0.001 sec ( 24.443%)
 molecular gradient             ...        0 min,  0.001 sec ( 46.655%)
 printout                       ...        0 min,  0.000 sec (  2.526%)

         :::::::::::::::::::::::::::::::::::::::::::::::::::::
         ::                     SUMMARY                     ::
         :::::::::::::::::::::::::::::::::::::::::::::::::::::
         :: total energy             -13.665127753846 Eh    ::
         :: gradient norm              0.000039817845 Eh/a0 ::
         :: HOMO-LUMO gap             13.800902710508 eV    ::
         ::.................................................::
         :: SCC energy               -13.876023301813 Eh    ::
         :: -> isotropic ES            0.002998416385 Eh    ::
         :: -> anisotropic ES          0.004909948646 Eh    ::
         :: -> anisotropic XC          0.009059988005 Eh    ::
         :: -> dispersion             -0.006049009475 Eh    ::
         :: repulsion energy           0.210891677565 Eh    ::
         :: add. restraining           0.000000000000 Eh    ::
         :: total charge              -0.000000000000 e     ::
         :::::::::::::::::::::::::::::::::::::::::::::::::::::

           -------------------------------------------------
          |                Property Printout                |
           -------------------------------------------------

    * Orbital Energies and Occupations

         #    Occupation            Energy/Eh            Energy/eV
      -------------------------------------------------------------
         1        2.0000           -0.6179675             -16.8158
         2        2.0000           -0.5989686             -16.2988
         3        2.0000           -0.5679197             -15.4539
         4        2.0000           -0.5523984             -15.0315
         5        2.0000           -0.5138390             -13.9823
         6        2.0000           -0.4918421             -13.3837
         7        2.0000           -0.4878873             -13.2761
         8        2.0000           -0.4789776             -13.0336
         9        2.0000           -0.4546550             -12.3718
        10        2.0000           -0.4395123             -11.9597
        11        2.0000           -0.4367371             -11.8842
        12        2.0000           -0.4258105             -11.5869
        13        2.0000           -0.4195592             -11.4168 (HOMO)
        14                          0.0876147               2.3841 (LUMO)
        15                          0.1267124               3.4480
        16                          0.1277836               3.4772
        17                          0.1525450               4.1510
        18                          0.1629251               4.4334
        19                          0.1836974               4.9987
        20                          0.1937241               5.2715
        21                          0.1971258               5.3641
        22                          0.2245161               6.1094
        23                          0.2549115               6.9365
        24                          0.2645565               7.1989
       ...                                ...                  ...
        26                          0.3113861               8.4732
      -------------------------------------------------------------
                  HL-Gap            0.5071738 Eh           13.8009 eV
             Fermi-level           -0.1659722 Eh           -4.5163 eV

     #   Z          covCN         q      C6AA      α(0)
     1   6 C        3.752    -0.102    22.510     6.766
     2   6 C        3.801    -0.053    21.534     6.607
     3   6 C        3.801    -0.053    21.534     6.607
     4   6 C        3.752    -0.102    22.510     6.766
     5   1 H        0.925     0.033     2.550     2.497
     6   1 H        0.925     0.033     2.550     2.497
     7   1 H        0.925     0.032     2.554     2.499
     8   1 H        0.924     0.029     2.600     2.522
     9   1 H        0.924     0.029     2.600     2.522
    10   1 H        0.924     0.029     2.600     2.522
    11   1 H        0.924     0.029     2.600     2.522
    12   1 H        0.925     0.033     2.550     2.497
    13   1 H        0.925     0.033     2.550     2.497
    14   1 H        0.925     0.032     2.554     2.499

 Mol. C6AA /au·bohr⁶  :       1207.500238
 Mol. C8AA /au·bohr⁸  :      24480.554918
 Mol. α(0) /au        :         51.819461


Wiberg/Mayer (AO) data.
largest (>0.10) Wiberg bond orders for each atom

 ---------------------------------------------------------------------------
     #   Z sym  total        # sym  WBO       # sym  WBO       # sym  WBO
 ---------------------------------------------------------------------------
     1   6 C    3.997 --     2 C    1.019     5 H    0.988     6 H    0.988
                             7 H    0.988
     2   6 C    3.998 --     1 C    1.019     3 C    1.009     9 H    0.979
                             8 H    0.979
     3   6 C    3.998 --     4 C    1.019     2 C    1.009    11 H    0.979
                            10 H    0.979
     4   6 C    3.997 --     3 C    1.019    12 H    0.988    13 H    0.988
                            14 H    0.988
     5   1 H    0.999 --     1 C    0.988
     6   1 H    0.999 --     1 C    0.988
     7   1 H    0.999 --     1 C    0.988
     8   1 H    0.999 --     2 C    0.979
     9   1 H    0.999 --     2 C    0.979
    10   1 H    0.999 --     3 C    0.979
    11   1 H    0.999 --     3 C    0.979
    12   1 H    0.999 --     4 C    0.988
    13   1 H    0.999 --     4 C    0.988
    14   1 H    0.999 --     4 C    0.988
 ---------------------------------------------------------------------------

Topologies differ in total number of bonds
Writing topology from bond orders to xtbtopo.mol

molecular dipole:
                 x           y           z       tot (Debye)
 q only:        0.000      -0.000      -0.000
   full:        0.000      -0.000      -0.000       0.000
molecular quadrupole (traceless):
                xx          xy          yy          xz          yz          zz
 q only:        0.195       0.031      -0.124       0.020      -0.068      -0.070
  q+dip:       -1.108      -0.118       0.703      -0.194       0.347       0.405
   full:       -0.481      -0.055       0.306      -0.080       0.155       0.175

           -------------------------------------------------
          |                Geometry Summary                 |
           -------------------------------------------------

      molecular mass/u    :       58.1223511
   center of mass at/Å    :       -0.0000000       0.0000000       0.0000000
  moments of inertia/u·Å² :        0.2162894E+02   0.1369947E+03   0.1460873E+03
rotational constants/cm⁻¹ :        0.7794016E+00   0.1230532E+00   0.1153942E+00

 * 13 selected distances

     #   Z          #   Z                                           value/Å
     1   6 C        2   6 C                                       1.5237175
     2   6 C        3   6 C                                       1.5268123 (max)
     3   6 C        4   6 C                                       1.5237175
     1   6 C        5   1 H                                       1.0880429
     1   6 C        6   1 H                                       1.0880429
     1   6 C        7   1 H                                       1.0876336 (min)
     2   6 C        8   1 H                                       1.0925900
     2   6 C        9   1 H                                       1.0925900
     3   6 C       10   1 H                                       1.0925900
     3   6 C       11   1 H                                       1.0925900
     4   6 C       12   1 H                                       1.0880429
     4   6 C       13   1 H                                       1.0880429
     4   6 C       14   1 H                                       1.0876336

 * 2 distinct bonds (by element types)

   Z      Z             #   av. dist./Å        max./Å        min./Å
   1 H    6 C          10     1.0897799     1.0925900     1.0876336
   6 C    6 C           3     1.5247491     1.5268123     1.5237175


optimized geometry written to: xtbopt.xyz


           -------------------------------------------------
          | TOTAL ENERGY              -13.665127753846 Eh   |
          | GRADIENT NORM               0.000039817845 Eh/α |
          | HOMO-LUMO GAP              13.800902710508 eV   |
           -------------------------------------------------

------------------------------------------------------------------------
 * finished run on 2025/08/26 at 12:19:44.778     
------------------------------------------------------------------------
 total:
 * wall-time:     0 d,  0 h,  0 min,  0.050 sec
 *  cpu-time:     0 d,  0 h,  0 min,  0.044 sec
 * ratio c/w:     0.883 speedup
 SCF:
 * wall-time:     0 d,  0 h,  0 min,  0.008 sec
 *  cpu-time:     0 d,  0 h,  0 min,  0.006 sec
 * ratio c/w:     0.769 speedup
 ANC optimizer:
 * wall-time:     0 d,  0 h,  0 min,  0.026 sec
 *  cpu-time:     0 d,  0 h,  0 min,  0.025 sec
 * ratio c/w:     0.976 speedup

