14
 energy: -13.664813881271 gnorm: 0.014962748474 xtb: 6.6.1 (8d0f1dd)
C           -1.88575592000000        0.06373130000000       -0.43049579000000
C           -0.39525083000000        0.33295749000000       -0.56224273000000
C            0.39525084000000       -0.33295656000000        0.56224547000000
C            1.88575628000000       -0.06373241000000        0.43049530000000
H           -2.27240584000000        0.45248132000000        0.51698714000000
H           -2.09579593000000       -1.00977425000000       -0.47310252000000
H           -2.43210455000000        0.54932566000000       -1.24512606000000
H           -0.04706982000000       -0.03855849000000       -1.53308047000000
H           -0.22268373000000        1.41546087000000       -0.54856886000000
H            0.22268294000000       -1.41545980000000        0.54857043000000
H            0.04707086000000        0.03856063000000        1.53308365000000
H            2.27240287000000       -0.45248198000000       -0.51698866000000
H            2.09579739000000        1.00977404000000        0.47309863000000
H            2.43210544000000       -0.54932783000000        1.24512447000000
14
 energy: -13.665102467548 gnorm: 0.004981323614 xtb: 6.6.1 (8d0f1dd)
C           -1.89394966488360        0.06546887018858       -0.43452422993331
C           -0.40002625770884        0.33025921116615       -0.55911064256229
C            0.40002613790693       -0.33025829517496        0.55911198274419
C            1.89394980104461       -0.06546968034899        0.43452362687153
H           -2.27444317868018        0.44976425565372        0.51112485563509
H           -2.09889055506814       -1.00374838969125       -0.47304364111193
H           -2.44220748556532        0.54712147934128       -1.24367059349916
H           -0.04441726427068       -0.04381848965654       -1.52318029211074
H           -0.21984629751037        1.40867494146021       -0.53970044420280
H            0.21984513328805       -1.40867380204147        0.53970235362226
H            0.04441841827445        0.04382033602728        1.52318175306987
H            2.27444125377113       -0.44976583506735       -0.51112586308483
H            2.09889184719922        1.00374764625387        0.47304165193814
H            2.44220811220273       -0.54712225811053        1.24366948262398
14
 energy: -13.665126375833 gnorm: 0.001161741366 xtb: 6.6.1 (8d0f1dd)
C           -1.89204268347644        0.06499781912679       -0.43348827270101
C           -0.39791919806858        0.33144568075657       -0.56048745306761
C            0.39791906916434       -0.33144480825916        0.56048830418619
C            1.89204274460765       -0.06499848849965        0.43348770555052
H           -2.27018871344035        0.44913924805768        0.51164264048962
H           -2.09476567878944       -1.00330319526664       -0.47180117857871
H           -2.43849312272233        0.54616759152753       -1.24159862319120
H           -0.04258671945648       -0.04355523426339       -1.52349251240622
H           -0.21804337343482        1.40916764626284       -0.53985721007417
H            0.21804221002217       -1.40916659349846        0.53985896834880
H            0.04258773161324        0.04355703047233        1.52349337299886
H            2.27018741556387       -0.44914095291086       -0.51164333180280
H            2.09476681852972        1.00330235590270        0.47179975537785
H            2.43849349988745       -0.54616810940829        1.24159783486988
14
 energy: -13.665127571464 gnorm: 0.000294531629 xtb: 6.6.1 (8d0f1dd)
C           -1.89232739315984        0.06508650588122       -0.43366982354762
C           -0.39760079273164        0.33183544342219       -0.56100654625360
C            0.39760070372046       -0.33183467126751        0.56100713873312
C            1.89232745402660       -0.06508706621752        0.43366939944818
H           -2.26871221943727        0.44950169092441        0.51197504209453
H           -2.09322242155557       -1.00349602108493       -0.47184513100759
H           -2.43839310371616        0.54626755094739       -1.24172808086861
H           -0.04278589554169       -0.04341926275207       -1.52376049418492
H           -0.21824586602980        1.40933247574708       -0.54010594760356
H            0.21824486265804       -1.40933157883999        0.54010727766898
H            0.04278662564979        0.04342092695976        1.52376104530147
H            2.26871142566669       -0.44950321816061       -0.51197541311353
H            2.09322339133649        1.00349530049622        0.47184387423456
H            2.43839322911391       -0.54626808605564        1.24172765909857
14
 energy: -13.665127753845 gnorm: 0.000039779117 xtb: 6.6.1 (8d0f1dd)
C           -1.89245910129393        0.06503456268109       -0.43361658282173
C           -0.39767349996912        0.33174355488931       -0.56088394355700
C            0.39767341472402       -0.33174285209098        0.56088445443156
C            1.89245916084865       -0.06503507646478        0.43361622431930
H           -2.26937567937265        0.44942542634250        0.51190695467708
H           -2.09389296275131       -1.00351489206434       -0.47187441893329
H           -2.43861429764579        0.54625810979952       -1.24175336514094
H           -0.04265828363357       -0.04353503999055       -1.52363149583423
H           -0.21812527968104        1.40927607636068       -0.53993686536410
H            0.21812437368024       -1.40927525041885        0.53993801560480
H            0.04265892900123        0.04353651266461        1.52363197791738
H            2.26937496639126       -0.44942684220857       -0.51190725357780
H            2.09389387587238        1.00351424654054        0.47187325952700
H            2.43861438382964       -0.54625854604019        1.24175303875198
