14
 energy: -13.664177429593 gnorm: 0.000023944893 xtb: 6.6.1 (8d0f1dd)
C           -1.57065252000000        0.03412973000000       -0.56341617000000
C           -0.67199090000000       -0.36459139000000        0.60141750000000
C            0.67199290000000        0.36469471000000        0.60137191000000
C            1.57065112000000       -0.03422184000000       -0.56340072000000
H           -1.12959792000000       -0.25447934000000       -1.51382433000000
H           -1.72990397000000        1.11052089000000       -0.56948631000000
H           -2.53864787000000       -0.45479509000000       -0.47794935000000
H           -0.49552949000000       -1.44236712000000        0.57094325000000
H           -1.18948502000000       -0.14139561000000        1.53775698000000
H            1.18948321000000        0.14165198000000        1.53775325000000
H            0.49552933000000        1.44246687000000        0.57071080000000
H            2.53865362000000        0.45470874000000       -0.47805345000000
H            1.12959872000000        0.25415725000000       -1.51387307000000
H            1.72989226000000       -1.11060215000000       -0.56927489000000
